/*--------------------------------*- C++ -*----------------------------------*\
  =========                 |
  \\      /  F ield         | OpenFOAM: The Open Source CFD Toolbox
   \\    /   O peration     | Website:  https://openfoam.org
    \\  /    A nd           | Version:  7
     \\/     M anipulation  |
\*---------------------------------------------------------------------------*/
FoamFile
{
    version     2.0;
    format      ascii;
    class       volVectorField;
    location    "0.4875";
    object      U;
}
// * * * * * * * * * * * * * * * * * * * * * * * * * * * * * * * * * * * * * //

dimensions      [0 1 -1 0 0 0 0];

internalField   nonuniform List<vector> 
12800
(
(8.33956e-06 -8.3101e-06 0)
(3.71136e-05 -1.85297e-05 0)
(7.85602e-05 -1.97118e-05 0)
(0.000113277 -1.5356e-05 0)
(0.000130027 -8.31375e-06 0)
(0.000123918 -1.40427e-07 0)
(9.28047e-05 8.34295e-06 0)
(3.60733e-05 1.66962e-05 0)
(-4.59199e-05 2.46863e-05 0)
(-0.000152227 3.21938e-05 0)
(-0.00028155 3.91592e-05 0)
(-0.00043238 4.55573e-05 0)
(-0.000603097 5.13828e-05 0)
(-0.000792021 5.66422e-05 0)
(-0.000997463 6.13496e-05 0)
(-0.00121775 6.55236e-05 0)
(-0.00145123 6.91861e-05 0)
(-0.00169631 7.23605e-05 0)
(-0.00195146 7.50716e-05 0)
(-0.00221522 7.73446e-05 0)
(-0.00248617 7.92052e-05 0)
(-0.002763 8.06789e-05 0)
(-0.00304446 8.1791e-05 0)
(-0.00332936 8.25664e-05 0)
(-0.00361662 8.30296e-05 0)
(-0.00390521 8.32041e-05 0)
(-0.00419418 8.31131e-05 0)
(-0.00448266 8.27788e-05 0)
(-0.00476984 8.22228e-05 0)
(-0.00505499 8.14655e-05 0)
(-0.00533744 8.05267e-05 0)
(-0.00561658 7.94252e-05 0)
(-0.00589188 7.81787e-05 0)
(-0.00616285 7.68043e-05 0)
(-0.00642905 7.5318e-05 0)
(-0.00669012 7.37346e-05 0)
(-0.00694572 7.20684e-05 0)
(-0.00719558 7.03326e-05 0)
(-0.00743946 6.85394e-05 0)
(-0.00767716 6.67003e-05 0)
(-0.00790853 6.48258e-05 0)
(-0.00813345 6.29257e-05 0)
(-0.00835182 6.10088e-05 0)
(-0.00856359 5.90833e-05 0)
(-0.00876872 5.71566e-05 0)
(-0.00896722 5.52353e-05 0)
(-0.00915908 5.33255e-05 0)
(-0.00934436 5.14324e-05 0)
(-0.0095231 4.95607e-05 0)
(-0.00969537 4.77147e-05 0)
(-0.00986126 4.58977e-05 0)
(-0.0100209 4.41129e-05 0)
(-0.0101743 4.23626e-05 0)
(-0.0103216 4.0649e-05 0)
(-0.010463 3.89737e-05 0)
(-0.0105986 3.73378e-05 0)
(-0.0107285 3.57422e-05 0)
(-0.0108528 3.41872e-05 0)
(-0.0109717 3.26729e-05 0)
(-0.0110853 3.11991e-05 0)
(-0.0111937 2.97652e-05 0)
(-0.0112972 2.83705e-05 0)
(-0.0113957 2.70139e-05 0)
(-0.0114894 2.56941e-05 0)
(-0.0115785 2.44095e-05 0)
(-0.0116631 2.31584e-05 0)
(-0.0117432 2.19389e-05 0)
(-0.011819 2.07489e-05 0)
(-0.0118906 1.95863e-05 0)
(-0.011958 1.84484e-05 0)
(-0.0120214 1.73329e-05 0)
(-0.0120808 1.62369e-05 0)
(-0.0121362 1.51577e-05 0)
(-0.0121878 1.40924e-05 0)
(-0.0122355 1.30381e-05 0)
(-0.0122794 1.19916e-05 0)
(-0.0123196 1.09497e-05 0)
(-0.0123559 9.90917e-06 0)
(-0.0123885 8.86666e-06 0)
(-0.0124172 7.81882e-06 0)
(-0.0124422 6.76228e-06 0)
(-0.0124633 5.69358e-06 0)
(-0.0124805 4.60922e-06 0)
(-0.0124937 3.50566e-06 0)
(-0.0125029 2.37937e-06 0)
(-0.0125079 1.22685e-06 0)
(-0.0125087 4.46098e-08 0)
(-0.0125053 -1.1708e-06 0)
(-0.0124973 -2.4228e-06 0)
(-0.0124848 -3.7148e-06 0)
(-0.0124676 -5.0501e-06 0)
(-0.0124454 -6.43193e-06 0)
(-0.0124183 -7.86338e-06 0)
(-0.0123859 -9.3474e-06 0)
(-0.0123482 -1.08868e-05 0)
(-0.0123049 -1.24843e-05 0)
(-0.0122558 -1.41422e-05 0)
(-0.0122006 -1.58629e-05 0)
(-0.0121393 -1.76482e-05 0)
(-0.0120716 -1.94999e-05 0)
(-0.0119972 -2.14192e-05 0)
(-0.0119159 -2.34072e-05 0)
(-0.0118276 -2.54645e-05 0)
(-0.0117318 -2.75912e-05 0)
(-0.0116286 -2.9787e-05 0)
(-0.0115175 -3.20512e-05 0)
(-0.0113984 -3.43823e-05 0)
(-0.0112711 -3.67785e-05 0)
(-0.0111353 -3.92371e-05 0)
(-0.010991 -4.17549e-05 0)
(-0.0108378 -4.43279e-05 0)
(-0.0106756 -4.69514e-05 0)
(-0.0105043 -4.96198e-05 0)
(-0.0103237 -5.23268e-05 0)
(-0.0101338 -5.50651e-05 0)
(-0.00993442 -5.78266e-05 0)
(-0.00972558 -6.0602e-05 0)
(-0.00950724 -6.33813e-05 0)
(-0.00927944 -6.61533e-05 0)
(-0.00904223 -6.8906e-05 0)
(-0.00879573 -7.16262e-05 0)
(-0.00854009 -7.42996e-05 0)
(-0.00827552 -7.69111e-05 0)
(-0.00800227 -7.94442e-05 0)
(-0.00772067 -8.18817e-05 0)
(-0.00743108 -8.42051e-05 0)
(-0.00713397 -8.63953e-05 0)
(-0.00682982 -8.84318e-05 0)
(-0.00651922 -9.02935e-05 0)
(-0.00620282 -9.19583e-05 0)
(-0.00588134 -9.34035e-05 0)
(-0.00555559 -9.46055e-05 0)
(-0.00522644 -9.55401e-05 0)
(-0.00489486 -9.61826e-05 0)
(-0.00456188 -9.65077e-05 0)
(-0.00422864 -9.64899e-05 0)
(-0.00389634 -9.61033e-05 0)
(-0.00356626 -9.53219e-05 0)
(-0.00323979 -9.41196e-05 0)
(-0.00291836 -9.24705e-05 0)
(-0.00260352 -9.03487e-05 0)
(-0.00229686 -8.77287e-05 0)
(-0.00200007 -8.45858e-05 0)
(-0.00171488 -8.08958e-05 0)
(-0.0014431 -7.66357e-05 0)
(-0.00118659 -7.17839e-05 0)
(-0.000947235 -6.63211e-05 0)
(-0.00072696 -6.02311e-05 0)
(-0.000527683 -5.35024e-05 0)
(-0.000351299 -4.61311e-05 0)
(-0.000199631 -3.81252e-05 0)
(-7.4371e-05 -2.95131e-05 0)
(2.30238e-05 -2.03588e-05 0)
(9.14794e-05 -1.07907e-05 0)
(0.000130567 -1.05951e-06 0)
(0.000140919 8.35581e-06 0)
(0.000124851 1.65514e-05 0)
(8.77296e-05 2.17945e-05 0)
(4.20488e-05 2.08639e-05 0)
(9.63462e-06 9.63299e-06 0)
(1.85647e-05 -3.70715e-05 0)
(7.0386e-05 -7.02933e-05 0)
(0.0001321 -6.77637e-05 0)
(0.000170217 -4.20985e-05 0)
(0.000163452 -3.16171e-06 0)
(0.000100368 4.27116e-05 0)
(-2.52995e-05 9.15521e-05 0)
(-0.000216291 0.000140878 0)
(-0.000472817 0.000189142 0)
(-0.000793374 0.000235383 0)
(-0.00117532 0.000279009 0)
(-0.00161526 0.000319666 0)
(-0.00210932 0.000357157 0)
(-0.00265335 0.000391392 0)
(-0.00324304 0.000422355 0)
(-0.00387404 0.00045008 0)
(-0.00454201 0.000474638 0)
(-0.00524268 0.000496127 0)
(-0.00597191 0.000514663 0)
(-0.00672569 0.000530375 0)
(-0.00750019 0.000543401 0)
(-0.00829173 0.000553883 0)
(-0.00909683 0.00056197 0)
(-0.00991222 0.000567809 0)
(-0.0107348 0.000571548 0)
(-0.0115617 0.000573335 0)
(-0.0123902 0.000573314 0)
(-0.0132179 0.000571626 0)
(-0.0140424 0.00056841 0)
(-0.0148616 0.000563798 0)
(-0.0156736 0.00055792 0)
(-0.0164767 0.000550899 0)
(-0.0172693 0.000542853 0)
(-0.0180499 0.000533896 0)
(-0.0188173 0.000524134 0)
(-0.0195705 0.000513669 0)
(-0.0203083 0.000502597 0)
(-0.0210301 0.000491007 0)
(-0.021735 0.000478984 0)
(-0.0224226 0.000466606 0)
(-0.0230922 0.000453946 0)
(-0.0237436 0.000441072 0)
(-0.0243764 0.000428046 0)
(-0.0249904 0.000414924 0)
(-0.0255855 0.000401759 0)
(-0.0261617 0.000388597 0)
(-0.0267189 0.000375482 0)
(-0.0272573 0.000362451 0)
(-0.027777 0.000349539 0)
(-0.028278 0.000336774 0)
(-0.0287608 0.000324183 0)
(-0.0292254 0.000311788 0)
(-0.0296722 0.000299607 0)
(-0.0301015 0.000287657 0)
(-0.0305137 0.000275949 0)
(-0.0309089 0.000264493 0)
(-0.0312877 0.000253295 0)
(-0.0316503 0.00024236 0)
(-0.0319972 0.00023169 0)
(-0.0323287 0.000221284 0)
(-0.0326452 0.000211139 0)
(-0.032947 0.000201251 0)
(-0.0332345 0.000191613 0)
(-0.0335081 0.000182218 0)
(-0.033768 0.000173055 0)
(-0.0340147 0.000164114 0)
(-0.0342483 0.000155381 0)
(-0.0344693 0.000146844 0)
(-0.0346778 0.000138487 0)
(-0.0348741 0.000130295 0)
(-0.0350585 0.00012225 0)
(-0.035231 0.000114334 0)
(-0.035392 0.000106529 0)
(-0.0355415 9.88143e-05 0)
(-0.0356796 9.11709e-05 0)
(-0.0358065 8.35776e-05 0)
(-0.0359221 7.60129e-05 0)
(-0.0360266 6.84548e-05 0)
(-0.0361198 6.08808e-05 0)
(-0.0362018 5.32683e-05 0)
(-0.0362725 4.55943e-05 0)
(-0.0363318 3.78356e-05 0)
(-0.0363795 2.99686e-05 0)
(-0.0364155 2.19698e-05 0)
(-0.0364396 1.38156e-05 0)
(-0.0364514 5.48244e-06 0)
(-0.0364508 -3.05301e-06 0)
(-0.0364375 -1.18138e-05 0)
(-0.036411 -2.08227e-05 0)
(-0.0363711 -3.01019e-05 0)
(-0.0363173 -3.96734e-05 0)
(-0.0362492 -4.95581e-05 0)
(-0.0361663 -5.97763e-05 0)
(-0.0360682 -7.03471e-05 0)
(-0.0359544 -8.12888e-05 0)
(-0.0358242 -9.2618e-05 0)
(-0.0356771 -0.00010435 0)
(-0.0355126 -0.000116499 0)
(-0.0353301 -0.000129077 0)
(-0.0351289 -0.000142093 0)
(-0.0349084 -0.000155554 0)
(-0.034668 -0.000169467 0)
(-0.0344071 -0.000183833 0)
(-0.034125 -0.000198652 0)
(-0.033821 -0.000213919 0)
(-0.0334946 -0.000229627 0)
(-0.0331452 -0.000245765 0)
(-0.0327722 -0.000262318 0)
(-0.0323749 -0.000279265 0)
(-0.0319529 -0.000296584 0)
(-0.0315057 -0.000314244 0)
(-0.0310329 -0.000332212 0)
(-0.0305341 -0.000350448 0)
(-0.0300088 -0.000368907 0)
(-0.029457 -0.000387537 0)
(-0.0288783 -0.000406282 0)
(-0.0282728 -0.000425077 0)
(-0.0276404 -0.000443854 0)
(-0.0269813 -0.000462536 0)
(-0.0262956 -0.000481039 0)
(-0.0255837 -0.000499274 0)
(-0.0248462 -0.000517144 0)
(-0.0240835 -0.000534546 0)
(-0.0232966 -0.000551369 0)
(-0.0224863 -0.000567497 0)
(-0.0216538 -0.000582808 0)
(-0.0208004 -0.000597172 0)
(-0.0199275 -0.000610455 0)
(-0.0190368 -0.000622516 0)
(-0.0181302 -0.000633211 0)
(-0.0172097 -0.000642389 0)
(-0.0162777 -0.000649897 0)
(-0.0153367 -0.000655579 0)
(-0.0143894 -0.000659274 0)
(-0.0134387 -0.000660823 0)
(-0.0124878 -0.000660063 0)
(-0.0115402 -0.000656832 0)
(-0.0105994 -0.00065097 0)
(-0.00966921 -0.000642319 0)
(-0.00875378 -0.000630724 0)
(-0.0078573 -0.000616035 0)
(-0.00698421 -0.000598112 0)
(-0.00613909 -0.000576823 0)
(-0.0053267 -0.000552047 0)
(-0.00455192 -0.000523682 0)
(-0.0038197 -0.000491648 0)
(-0.00313507 -0.000455892 0)
(-0.00250302 -0.000416403 0)
(-0.00192845 -0.000373223 0)
(-0.00141608 -0.000326473 0)
(-0.000970283 -0.000276385 0)
(-0.000594872 -0.000223359 0)
(-0.000292831 -0.000168051 0)
(-6.58768e-05 -0.000111515 0)
(8.61655e-05 -5.5446e-05 0)
(0.000166267 -2.57824e-06 0)
(0.000181316 4.26852e-05 0)
(0.000143981 7.32532e-05 0)
(7.79846e-05 7.79512e-05 0)
(2.08643e-05 4.20348e-05 0)
(1.98127e-05 -7.86302e-05 0)
(6.81338e-05 -0.000132105 0)
(0.000111249 -0.000110692 0)
(0.000110457 -3.94797e-05 0)
(4.04929e-05 6.29485e-05 0)
(-0.000113504 0.000183372 0)
(-0.00036043 0.000312643 0)
(-0.000704688 0.000444552 0)
(-0.00114722 0.00057492 0)
(-0.00168647 0.000700951 0)
(-0.0023191 0.000820798 0)
(-0.00304052 0.000933263 0)
(-0.0038453 0.00103761 0)
(-0.00472746 0.00113341 0)
(-0.00568068 0.0012205 0)
(-0.00669849 0.00129884 0)
(-0.00777435 0.00136855 0)
(-0.00890179 0.00142981 0)
(-0.0100745 0.0014829 0)
(-0.0112862 0.00152813 0)
(-0.012531 0.00156582 0)
(-0.0138032 0.00159637 0)
(-0.0150973 0.00162014 0)
(-0.0164082 0.00163754 0)
(-0.017731 0.00164897 0)
(-0.0190612 0.00165482 0)
(-0.0203944 0.0016555 0)
(-0.0217268 0.00165139 0)
(-0.0230545 0.00164288 0)
(-0.0243744 0.00163033 0)
(-0.0256831 0.00161412 0)
(-0.0269781 0.00159459 0)
(-0.0282566 0.00157207 0)
(-0.0295164 0.00154689 0)
(-0.0307555 0.00151934 0)
(-0.0319721 0.00148972 0)
(-0.0331645 0.00145831 0)
(-0.0343314 0.00142535 0)
(-0.0354715 0.00139109 0)
(-0.0365841 0.00135577 0)
(-0.0376681 0.00131957 0)
(-0.0387229 0.00128271 0)
(-0.0397481 0.00124537 0)
(-0.0407433 0.0012077 0)
(-0.0417083 0.00116986 0)
(-0.0426428 0.00113198 0)
(-0.043547 0.0010942 0)
(-0.0444209 0.00105661 0)
(-0.0452647 0.00101933 0)
(-0.0460786 0.00098244 0)
(-0.0468629 0.000946013 0)
(-0.0476181 0.000910117 0)
(-0.0483445 0.000874808 0)
(-0.0490425 0.000840133 0)
(-0.0497128 0.000806128 0)
(-0.0503558 0.000772823 0)
(-0.0509721 0.00074024 0)
(-0.0515622 0.000708391 0)
(-0.0521268 0.000677283 0)
(-0.0526663 0.000646917 0)
(-0.0531815 0.000617285 0)
(-0.0536727 0.000588377 0)
(-0.0541407 0.000560174 0)
(-0.0545859 0.000532656 0)
(-0.0550089 0.000505794 0)
(-0.0554102 0.000479559 0)
(-0.0557903 0.000453915 0)
(-0.0561496 0.000428822 0)
(-0.0564885 0.00040424 0)
(-0.0568074 0.000380122 0)
(-0.0571067 0.00035642 0)
(-0.0573867 0.000333084 0)
(-0.0576476 0.00031006 0)
(-0.0578896 0.000287292 0)
(-0.058113 0.000264722 0)
(-0.0583179 0.000242292 0)
(-0.0585043 0.00021994 0)
(-0.0586723 0.000197603 0)
(-0.0588219 0.000175218 0)
(-0.058953 0.000152719 0)
(-0.0590654 0.000130041 0)
(-0.0591591 0.000107118 0)
(-0.0592338 8.38827e-05 0)
(-0.0592892 6.02679e-05 0)
(-0.0593249 3.62066e-05 0)
(-0.0593407 1.16319e-05 0)
(-0.059336 -1.35223e-05 0)
(-0.0593104 -3.93217e-05 0)
(-0.0592634 -6.58306e-05 0)
(-0.0591943 -9.31121e-05 0)
(-0.0591025 -0.000121227 0)
(-0.0589873 -0.000150236 0)
(-0.058848 -0.000180194 0)
(-0.0586839 -0.000211156 0)
(-0.058494 -0.000243172 0)
(-0.0582776 -0.000276289 0)
(-0.0580338 -0.000310549 0)
(-0.0577616 -0.000345989 0)
(-0.0574601 -0.000382642 0)
(-0.0571284 -0.000420534 0)
(-0.0567654 -0.000459684 0)
(-0.0563703 -0.000500104 0)
(-0.0559418 -0.000541798 0)
(-0.0554792 -0.000584762 0)
(-0.0549814 -0.000628982 0)
(-0.0544474 -0.000674434 0)
(-0.0538763 -0.000721083 0)
(-0.0532672 -0.000768883 0)
(-0.0526192 -0.000817774 0)
(-0.0519315 -0.000867685 0)
(-0.0512033 -0.00091853 0)
(-0.0504341 -0.000970208 0)
(-0.0496232 -0.0010226 0)
(-0.0487701 -0.00107558 0)
(-0.0478745 -0.001129 0)
(-0.0469362 -0.00118269 0)
(-0.0459549 -0.00123646 0)
(-0.0449309 -0.00129012 0)
(-0.0438643 -0.00134345 0)
(-0.0427556 -0.0013962 0)
(-0.0416052 -0.00144813 0)
(-0.0404142 -0.00149894 0)
(-0.0391834 -0.00154835 0)
(-0.0379143 -0.00159605 0)
(-0.0366083 -0.00164169 0)
(-0.0352672 -0.00168494 0)
(-0.0338932 -0.00172542 0)
(-0.0324887 -0.00176276 0)
(-0.0310563 -0.00179656 0)
(-0.029599 -0.00182641 0)
(-0.0281203 -0.00185188 0)
(-0.0266237 -0.00187256 0)
(-0.0251132 -0.001888 0)
(-0.0235933 -0.00189775 0)
(-0.0220686 -0.00190137 0)
(-0.0205441 -0.00189842 0)
(-0.0190252 -0.00188845 0)
(-0.0175176 -0.00187102 0)
(-0.0160273 -0.00184571 0)
(-0.0145607 -0.00181211 0)
(-0.0131244 -0.00176982 0)
(-0.0117253 -0.00171848 0)
(-0.0103704 -0.00165777 0)
(-0.00906717 -0.00158741 0)
(-0.00782303 -0.00150717 0)
(-0.00664552 -0.00141691 0)
(-0.00554221 -0.00131659 0)
(-0.00452053 -0.0012063 0)
(-0.00358771 -0.00108631 0)
(-0.00275055 -0.000957131 0)
(-0.00201518 -0.000819636 0)
(-0.00138679 -0.000675174 0)
(-0.000869139 -0.000525805 0)
(-0.000464026 -0.000374617 0)
(-0.000170449 -0.000226226 0)
(1.64224e-05 -8.75045e-05 0)
(0.000106433 3.13653e-05 0)
(0.000116106 0.000115557 0)
(7.35538e-05 0.000144019 0)
(2.18493e-05 8.77594e-05 0)
(1.55848e-05 -0.00011368 0)
(4.29408e-05 -0.000170697 0)
(4.09263e-05 -0.000110106 0)
(-2.80801e-05 2.96995e-05 0)
(-0.00018978 0.000221178 0)
(-0.000460365 0.00044389 0)
(-0.00084991 0.000682967 0)
(-0.00136365 0.000927814 0)
(-0.00200295 0.00117096 0)
(-0.00276622 0.00140718 0)
(-0.00364968 0.00163286 0)
(-0.00464793 0.00184556 0)
(-0.00575439 0.00204369 0)
(-0.00696173 0.00222627 0)
(-0.00826206 0.0023928 0)
(-0.00964721 0.00254309 0)
(-0.0111089 0.00267722 0)
(-0.0126388 0.00279546 0)
(-0.0142287 0.00289824 0)
(-0.0158706 0.00298606 0)
(-0.0175567 0.00305953 0)
(-0.0192795 0.0031193 0)
(-0.0210319 0.00316608 0)
(-0.022807 0.00320059 0)
(-0.0245984 0.00322357 0)
(-0.0264 0.00323576 0)
(-0.0282061 0.00323792 0)
(-0.0300114 0.00323077 0)
(-0.031811 0.00321505 0)
(-0.0336003 0.00319147 0)
(-0.0353753 0.00316071 0)
(-0.0371319 0.00312344 0)
(-0.0388669 0.00308031 0)
(-0.0405771 0.00303193 0)
(-0.0422597 0.0029789 0)
(-0.0439123 0.00292176 0)
(-0.0455326 0.00286105 0)
(-0.0471188 0.00279727 0)
(-0.0486693 0.0027309 0)
(-0.0501826 0.00266236 0)
(-0.0516576 0.00259207 0)
(-0.0530935 0.00252042 0)
(-0.0544894 0.00244775 0)
(-0.0558449 0.00237438 0)
(-0.0571597 0.00230062 0)
(-0.0584334 0.00222674 0)
(-0.0596661 0.00215297 0)
(-0.0608579 0.00207955 0)
(-0.0620088 0.00200665 0)
(-0.0631193 0.00193447 0)
(-0.0641898 0.00186315 0)
(-0.0652206 0.00179282 0)
(-0.0662124 0.00172359 0)
(-0.0671658 0.00165556 0)
(-0.0680813 0.0015888 0)
(-0.0689597 0.00152337 0)
(-0.0698018 0.00145931 0)
(-0.0706081 0.00139666 0)
(-0.0713796 0.00133542 0)
(-0.072117 0.00127561 0)
(-0.072821 0.0012172 0)
(-0.0734924 0.00116018 0)
(-0.0741319 0.00110452 0)
(-0.0747403 0.00105018 0)
(-0.0753182 0.000997094 0)
(-0.0758664 0.000945216 0)
(-0.0763854 0.000894476 0)
(-0.0768759 0.000844799 0)
(-0.0773384 0.000796103 0)
(-0.0777734 0.000748302 0)
(-0.0781814 0.000701303 0)
(-0.0785627 0.000655006 0)
(-0.0789179 0.000609309 0)
(-0.079247 0.000564104 0)
(-0.0795505 0.000519279 0)
(-0.0798283 0.000474719 0)
(-0.0800808 0.000430305 0)
(-0.0803078 0.000385917 0)
(-0.0805094 0.00034143 0)
(-0.0806855 0.00029672 0)
(-0.0808359 0.000251658 0)
(-0.0809605 0.000206115 0)
(-0.0810587 0.000159964 0)
(-0.0811305 0.000113074 0)
(-0.0811751 6.53145e-05 0)
(-0.0811923 1.65577e-05 0)
(-0.0811813 -3.33249e-05 0)
(-0.0811415 -8.44594e-05 0)
(-0.0810723 -0.00013697 0)
(-0.0809727 -0.000190978 0)
(-0.080842 -0.000246601 0)
(-0.0806792 -0.000303953 0)
(-0.0804834 -0.000363142 0)
(-0.0802536 -0.000424271 0)
(-0.0799886 -0.000487436 0)
(-0.0796873 -0.000552725 0)
(-0.0793485 -0.000620219 0)
(-0.0789711 -0.000689987 0)
(-0.0785537 -0.000762089 0)
(-0.0780952 -0.000836574 0)
(-0.0775941 -0.000913475 0)
(-0.0770492 -0.000992814 0)
(-0.0764592 -0.00107459 0)
(-0.0758228 -0.00115881 0)
(-0.0751386 -0.00124542 0)
(-0.0744054 -0.00133438 0)
(-0.0736219 -0.00142561 0)
(-0.0727871 -0.00151904 0)
(-0.0718997 -0.00161453 0)
(-0.0709587 -0.00171194 0)
(-0.0699631 -0.0018111 0)
(-0.0689122 -0.00191182 0)
(-0.067805 -0.00201386 0)
(-0.0666412 -0.00211697 0)
(-0.0654202 -0.00222085 0)
(-0.0641417 -0.00232518 0)
(-0.0628056 -0.00242961 0)
(-0.0614122 -0.00253373 0)
(-0.0599617 -0.00263712 0)
(-0.0584547 -0.00273932 0)
(-0.0568922 -0.00283981 0)
(-0.0552752 -0.00293808 0)
(-0.0536052 -0.00303354 0)
(-0.051884 -0.00312559 0)
(-0.0501137 -0.00321358 0)
(-0.0482967 -0.00329685 0)
(-0.046436 -0.00337468 0)
(-0.0445348 -0.00344635 0)
(-0.0425967 -0.00351109 0)
(-0.0406258 -0.00356812 0)
(-0.0386265 -0.00361663 0)
(-0.0366038 -0.00365581 0)
(-0.0345631 -0.00368481 0)
(-0.0325101 -0.00370279 0)
(-0.0304511 -0.00370891 0)
(-0.0283929 -0.00370232 0)
(-0.0263425 -0.0036822 0)
(-0.0243075 -0.00364772 0)
(-0.0222958 -0.0035981 0)
(-0.0203159 -0.00353259 0)
(-0.0183764 -0.00345048 0)
(-0.0164863 -0.00335113 0)
(-0.014655 -0.00323398 0)
(-0.0128919 -0.00309856 0)
(-0.0112067 -0.00294454 0)
(-0.00960906 -0.00277176 0)
(-0.00810864 -0.00258027 0)
(-0.00671482 -0.00237039 0)
(-0.00543662 -0.00214281 0)
(-0.00428241 -0.00189874 0)
(-0.00325962 -0.00164001 0)
(-0.00237437 -0.0013694 0)
(-0.00163091 -0.00109095 0)
(-0.00103108 -0.000810442 0)
(-0.000573375 -0.000536169 0)
(-0.000252021 -0.000279879 0)
(-5.58345e-05 -5.81359e-05 0)
(3.32048e-05 0.000106156 0)
(4.35743e-05 0.000181888 0)
(1.67377e-05 0.000125154 0)
(8.69877e-06 -0.000131064 0)
(4.50337e-06 -0.000164848 0)
(-6.07235e-05 -4.07343e-05 0)
(-0.000218703 0.000191232 0)
(-0.000492941 0.000495199 0)
(-0.000899422 0.000843915 0)
(-0.00144821 0.00121692 0)
(-0.00214456 0.00159914 0)
(-0.0029898 0.00197958 0)
(-0.00398213 0.00235027 0)
(-0.00511734 0.00270555 0)
(-0.00638934 0.00304145 0)
(-0.00779069 0.00335528 0)
(-0.00931296 0.0036453 0)
(-0.010947 0.00391052 0)
(-0.0126833 0.00415049 0)
(-0.0145122 0.00436518 0)
(-0.0164237 0.00455489 0)
(-0.0184081 0.00472017 0)
(-0.0204559 0.00486176 0)
(-0.0225577 0.00498052 0)
(-0.0247045 0.00507745 0)
(-0.0268875 0.00515359 0)
(-0.0290986 0.00521006 0)
(-0.0313299 0.005248 0)
(-0.0335739 0.00526858 0)
(-0.0358236 0.00527297 0)
(-0.0380727 0.00526233 0)
(-0.0403149 0.00523781 0)
(-0.0425448 0.00520053 0)
(-0.0447572 0.00515159 0)
(-0.0469473 0.00509207 0)
(-0.0491109 0.00502297 0)
(-0.051244 0.00494531 0)
(-0.0533433 0.00486002 0)
(-0.0554057 0.00476799 0)
(-0.0574284 0.0046701 0)
(-0.0594089 0.00456714 0)
(-0.0613454 0.00445987 0)
(-0.063236 0.00434902 0)
(-0.0650793 0.00423523 0)
(-0.0668741 0.00411914 0)
(-0.0686195 0.00400132 0)
(-0.0703148 0.00388228 0)
(-0.0719594 0.00376253 0)
(-0.0735532 0.00364249 0)
(-0.0750961 0.00352257 0)
(-0.0765879 0.00340312 0)
(-0.0780291 0.00328448 0)
(-0.0794199 0.00316692 0)
(-0.0807608 0.00305069 0)
(-0.0820524 0.00293601 0)
(-0.0832952 0.00282307 0)
(-0.08449 0.00271202 0)
(-0.0856376 0.00260298 0)
(-0.0867389 0.00249605 0)
(-0.0877946 0.00239131 0)
(-0.0888057 0.00228881 0)
(-0.0897731 0.00218857 0)
(-0.0906977 0.0020906 0)
(-0.0915805 0.00199489 0)
(-0.0924223 0.0019014 0)
(-0.0932242 0.00181008 0)
(-0.0939869 0.00172087 0)
(-0.0947113 0.00163369 0)
(-0.0953983 0.00154845 0)
(-0.0960485 0.00146503 0)
(-0.0966628 0.00138331 0)
(-0.0972419 0.00130318 0)
(-0.0977862 0.00122448 0)
(-0.0982965 0.00114707 0)
(-0.0987732 0.00107078 0)
(-0.0992167 0.000995458 0)
(-0.0996274 0.000920923 0)
(-0.100006 0.000846995 0)
(-0.100352 0.000773488 0)
(-0.100665 0.000700213 0)
(-0.100947 0.000626973 0)
(-0.101196 0.000553568 0)
(-0.101413 0.000479796 0)
(-0.101598 0.000405451 0)
(-0.10175 0.000330326 0)
(-0.101869 0.000254213 0)
(-0.101954 0.000176902 0)
(-0.102005 9.81851e-05 0)
(-0.102022 1.78542e-05 0)
(-0.102002 -6.42965e-05 0)
(-0.101947 -0.00014847 0)
(-0.101854 -0.000234865 0)
(-0.101723 -0.000323677 0)
(-0.101553 -0.000415094 0)
(-0.101343 -0.000509297 0)
(-0.101091 -0.00060646 0)
(-0.100797 -0.000706746 0)
(-0.100458 -0.000810308 0)
(-0.100074 -0.000917287 0)
(-0.0996424 -0.00102781 0)
(-0.0991628 -0.00114198 0)
(-0.0986333 -0.0012599 0)
(-0.0980522 -0.00138164 0)
(-0.0974181 -0.00150725 0)
(-0.0967293 -0.00163676 0)
(-0.0959842 -0.00177017 0)
(-0.0951812 -0.00190747 0)
(-0.0943188 -0.00204859 0)
(-0.0933955 -0.00219345 0)
(-0.0924096 -0.00234193 0)
(-0.0913599 -0.00249387 0)
(-0.090245 -0.00264908 0)
(-0.0890635 -0.00280733 0)
(-0.0878145 -0.00296832 0)
(-0.0864968 -0.00313174 0)
(-0.0851096 -0.00329722 0)
(-0.0836521 -0.00346432 0)
(-0.0821241 -0.00363258 0)
(-0.080525 -0.00380146 0)
(-0.0788549 -0.00397039 0)
(-0.0771139 -0.00413872 0)
(-0.0753027 -0.00430576 0)
(-0.0734218 -0.00447077 0)
(-0.0714726 -0.00463292 0)
(-0.0694563 -0.00479136 0)
(-0.067375 -0.00494516 0)
(-0.0652307 -0.00509334 0)
(-0.0630262 -0.00523487 0)
(-0.0607646 -0.00536867 0)
(-0.0584493 -0.00549361 0)
(-0.0560844 -0.00560851 0)
(-0.0536745 -0.00571215 0)
(-0.0512245 -0.00580328 0)
(-0.0487399 -0.00588061 0)
(-0.0462269 -0.00594284 0)
(-0.043692 -0.00598863 0)
(-0.0411423 -0.00601666 0)
(-0.0385856 -0.00602558 0)
(-0.0360299 -0.00601407 0)
(-0.033484 -0.00598082 0)
(-0.030957 -0.00592457 0)
(-0.0284587 -0.0058441 0)
(-0.0259992 -0.00573824 0)
(-0.0235889 -0.00560594 0)
(-0.0212388 -0.00544625 0)
(-0.0189599 -0.00525835 0)
(-0.0167637 -0.0050416 0)
(-0.0146616 -0.00479561 0)
(-0.0126651 -0.00452024 0)
(-0.0107855 -0.00421575 0)
(-0.00903385 -0.00388282 0)
(-0.00742049 -0.00352277 0)
(-0.00595509 -0.00313769 0)
(-0.00464609 -0.00273071 0)
(-0.00350035 -0.00230634 0)
(-0.00252263 -0.00187094 0)
(-0.00171496 -0.00143336 0)
(-0.00107588 -0.00100583 0)
(-0.000599567 -0.000605066 0)
(-0.000274821 -0.000253858 0)
(-8.38723e-05 1.73223e-05 0)
(-8.44166e-07 0.000168153 0)
(8.74096e-06 0.000141896 0)
(6.69578e-07 -0.000125869 0)
(-4.10547e-05 -0.000102928 0)
(-0.000181024 0.000112701 0)
(-0.000441992 0.000461966 0)
(-0.000843364 0.000901899 0)
(-0.00139972 0.00139917 0)
(-0.00212014 0.00192816 0)
(-0.00300918 0.00246949 0)
(-0.00406761 0.00300864 0)
(-0.00529315 0.00353485 0)
(-0.00668103 0.00404021 0)
(-0.00822451 0.00451907 0)
(-0.00991534 0.00496746 0)
(-0.0117442 0.00538276 0)
(-0.0137009 0.00576335 0)
(-0.0157747 0.0061084 0)
(-0.0179548 0.00641772 0)
(-0.02023 0.00669157 0)
(-0.0225892 0.00693061 0)
(-0.0250216 0.00713577 0)
(-0.0275163 0.00730821 0)
(-0.0300632 0.00744925 0)
(-0.0326522 0.00756034 0)
(-0.0352737 0.00764304 0)
(-0.0379187 0.00769892 0)
(-0.0405785 0.00772964 0)
(-0.043245 0.00773684 0)
(-0.0459108 0.00772218 0)
(-0.0485686 0.00768729 0)
(-0.0512119 0.00763379 0)
(-0.0538348 0.00756326 0)
(-0.0564317 0.00747722 0)
(-0.0589975 0.00737716 0)
(-0.0615276 0.0072645 0)
(-0.064018 0.00714063 0)
(-0.066465 0.00700684 0)
(-0.0688654 0.00686437 0)
(-0.0712164 0.0067144 0)
(-0.0735154 0.00655804 0)
(-0.0757605 0.00639633 0)
(-0.0779498 0.00623023 0)
(-0.0800819 0.00606066 0)
(-0.0821558 0.00588845 0)
(-0.0841705 0.00571437 0)
(-0.0861255 0.00553913 0)
(-0.0880204 0.00536339 0)
(-0.089855 0.00518772 0)
(-0.0916294 0.00501267 0)
(-0.0933438 0.00483869 0)
(-0.0949985 0.00466622 0)
(-0.0965941 0.00449562 0)
(-0.0981312 0.00432721 0)
(-0.0996105 0.00416127 0)
(-0.101033 0.00399802 0)
(-0.102399 0.00383766 0)
(-0.10371 0.00368033 0)
(-0.104967 0.00352614 0)
(-0.106171 0.00337517 0)
(-0.107323 0.00322747 0)
(-0.108424 0.00308304 0)
(-0.109475 0.00294186 0)
(-0.110478 0.0028039 0)
(-0.111433 0.00266909 0)
(-0.11234 0.00253732 0)
(-0.113203 0.00240849 0)
(-0.11402 0.00228246 0)
(-0.114794 0.00215907 0)
(-0.115524 0.00203815 0)
(-0.116213 0.00191952 0)
(-0.11686 0.00180297 0)
(-0.117466 0.00168828 0)
(-0.118031 0.00157523 0)
(-0.118557 0.00146357 0)
(-0.119044 0.00135304 0)
(-0.119492 0.00124339 0)
(-0.119901 0.00113435 0)
(-0.120271 0.00102564 0)
(-0.120603 0.000916972 0)
(-0.120896 0.000808059 0)
(-0.12115 0.000698605 0)
(-0.121366 0.000588313 0)
(-0.121542 0.00047688 0)
(-0.121678 0.000364004 0)
(-0.121775 0.000249381 0)
(-0.12183 0.000132708 0)
(-0.121843 1.36853e-05 0)
(-0.121815 -0.000107987 0)
(-0.121742 -0.000232602 0)
(-0.121625 -0.000360449 0)
(-0.121463 -0.000491808 0)
(-0.121254 -0.000626952 0)
(-0.120996 -0.000766143 0)
(-0.120689 -0.00090963 0)
(-0.120331 -0.00105765 0)
(-0.119921 -0.00121042 0)
(-0.119456 -0.00136814 0)
(-0.118936 -0.00153099 0)
(-0.118357 -0.00169913 0)
(-0.11772 -0.00187268 0)
(-0.117021 -0.00205176 0)
(-0.11626 -0.00223643 0)
(-0.115434 -0.00242673 0)
(-0.11454 -0.00262265 0)
(-0.113579 -0.00282417 0)
(-0.112547 -0.00303119 0)
(-0.111443 -0.00324358 0)
(-0.110265 -0.00346116 0)
(-0.109012 -0.00368371 0)
(-0.107682 -0.00391092 0)
(-0.106273 -0.00414246 0)
(-0.104785 -0.0043779 0)
(-0.103216 -0.00461676 0)
(-0.101565 -0.0048585 0)
(-0.0998311 -0.0051025 0)
(-0.0980143 -0.00534806 0)
(-0.0961141 -0.00559441 0)
(-0.0941305 -0.00584069 0)
(-0.0920637 -0.00608598 0)
(-0.0899144 -0.00632927 0)
(-0.0876836 -0.00656945 0)
(-0.0853725 -0.00680536 0)
(-0.0829829 -0.00703573 0)
(-0.0805171 -0.00725922 0)
(-0.0779777 -0.00747441 0)
(-0.0753678 -0.00767981 0)
(-0.0726911 -0.00787386 0)
(-0.0699517 -0.0080549 0)
(-0.0671545 -0.00822125 0)
(-0.0643046 -0.00837115 0)
(-0.0614079 -0.00850279 0)
(-0.058471 -0.00861432 0)
(-0.0555008 -0.00870385 0)
(-0.0525052 -0.0087695 0)
(-0.0494923 -0.00880935 0)
(-0.0464711 -0.0088215 0)
(-0.0434512 -0.00880406 0)
(-0.0404424 -0.00875519 0)
(-0.0374556 -0.0086731 0)
(-0.0345018 -0.00855609 0)
(-0.0315928 -0.00840255 0)
(-0.0287406 -0.00821105 0)
(-0.0259575 -0.00798028 0)
(-0.0232565 -0.0077092 0)
(-0.0206504 -0.00739702 0)
(-0.0181523 -0.0070433 0)
(-0.0157751 -0.00664803 0)
(-0.0135315 -0.00621173 0)
(-0.0114339 -0.00573561 0)
(-0.0094939 -0.00522175 0)
(-0.00772215 -0.00467331 0)
(-0.00612802 -0.0040949 0)
(-0.0047191 -0.00349299 0)
(-0.00350078 -0.00287643 0)
(-0.0024756 -0.00225725 0)
(-0.00164268 -0.00165158 0)
(-0.000996972 -0.00108093 0)
(-0.000528366 -0.000573809 0)
(-0.00022068 -0.000167364 0)
(-5.27513e-05 9.03034e-05 0)
(-4.33246e-07 0.000132739 0)
(-7.72261e-06 -9.58061e-05 0)
(-8.9987e-05 2.18061e-05 0)
(-0.000311408 0.000359934 0)
(-0.000684144 0.000853182 0)
(-0.00122226 0.00145292 0)
(-0.00193802 0.0021207 0)
(-0.00283877 0.00282635 0)
(-0.00392768 0.00354656 0)
(-0.00520456 0.00426349 0)
(-0.00666628 0.00496361 0)
(-0.00830732 0.00563679 0)
(-0.0101202 0.00627562 0)
(-0.0120959 0.00687477 0)
(-0.0142242 0.00743062 0)
(-0.016494 0.00794085 0)
(-0.0188936 0.00840417 0)
(-0.0214112 0.00882016 0)
(-0.0240343 0.00918901 0)
(-0.026751 0.00951143 0)
(-0.029549 0.00978856 0)
(-0.0324165 0.0100218 0)
(-0.0353421 0.0102129 0)
(-0.0383146 0.0103637 0)
(-0.0413234 0.0104762 0)
(-0.0443582 0.0105524 0)
(-0.0474095 0.0105946 0)
(-0.050468 0.0106049 0)
(-0.0535254 0.0105855 0)
(-0.0565735 0.0105386 0)
(-0.059605 0.0104664 0)
(-0.0626131 0.0103709 0)
(-0.0655915 0.0102543 0)
(-0.0685345 0.0101185 0)
(-0.0714369 0.00996549 0)
(-0.074294 0.00979707 0)
(-0.0771016 0.00961504 0)
(-0.079856 0.00942106 0)
(-0.0825541 0.00921675 0)
(-0.085193 0.0090036 0)
(-0.0877702 0.00878304 0)
(-0.0902839 0.00855637 0)
(-0.0927322 0.00832484 0)
(-0.095114 0.0080896 0)
(-0.0974282 0.00785169 0)
(-0.0996741 0.00761209 0)
(-0.101851 0.00737169 0)
(-0.10396 0.00713129 0)
(-0.105999 0.00689161 0)
(-0.107969 0.00665332 0)
(-0.109872 0.00641698 0)
(-0.111706 0.00618311 0)
(-0.113473 0.00595214 0)
(-0.115174 0.00572447 0)
(-0.11681 0.0055004 0)
(-0.118381 0.00528019 0)
(-0.11989 0.00506405 0)
(-0.121335 0.00485215 0)
(-0.12272 0.00464458 0)
(-0.124045 0.00444141 0)
(-0.125312 0.00424266 0)
(-0.126521 0.00404831 0)
(-0.127673 0.0038583 0)
(-0.128771 0.00367254 0)
(-0.129815 0.00349091 0)
(-0.130806 0.00331326 0)
(-0.131746 0.00313939 0)
(-0.132635 0.0029691 0)
(-0.133474 0.00280216 0)
(-0.134264 0.00263832 0)
(-0.135006 0.00247729 0)
(-0.135702 0.00231878 0)
(-0.13635 0.00216249 0)
(-0.136953 0.00200808 0)
(-0.13751 0.00185521 0)
(-0.138022 0.00170352 0)
(-0.138488 0.00155265 0)
(-0.138911 0.00140222 0)
(-0.139288 0.00125184 0)
(-0.139621 0.00110113 0)
(-0.139909 0.000949672 0)
(-0.140152 0.000797069 0)
(-0.140349 0.000642912 0)
(-0.140501 0.000486788 0)
(-0.140606 0.000328287 0)
(-0.140663 0.000166997 0)
(-0.140672 2.51092e-06 0)
(-0.140632 -0.000165576 0)
(-0.140542 -0.000337662 0)
(-0.140401 -0.000514136 0)
(-0.140207 -0.000695379 0)
(-0.139959 -0.000881758 0)
(-0.139655 -0.00107363 0)
(-0.139295 -0.00127132 0)
(-0.138875 -0.00147515 0)
(-0.138396 -0.00168543 0)
(-0.137853 -0.0019024 0)
(-0.137247 -0.00212632 0)
(-0.136575 -0.00235739 0)
(-0.135834 -0.00259579 0)
(-0.135024 -0.00284164 0)
(-0.134141 -0.00309505 0)
(-0.133184 -0.00335605 0)
(-0.132151 -0.00362463 0)
(-0.131039 -0.00390075 0)
(-0.129847 -0.00418427 0)
(-0.128572 -0.00447501 0)
(-0.127213 -0.00477273 0)
(-0.125768 -0.00507709 0)
(-0.124236 -0.00538769 0)
(-0.122613 -0.00570406 0)
(-0.1209 -0.00602562 0)
(-0.119095 -0.00635171 0)
(-0.117197 -0.00668159 0)
(-0.115204 -0.00701441 0)
(-0.113117 -0.00734921 0)
(-0.110935 -0.00768494 0)
(-0.108658 -0.00802045 0)
(-0.106287 -0.00835446 0)
(-0.103822 -0.00868559 0)
(-0.101264 -0.00901237 0)
(-0.0986158 -0.00933318 0)
(-0.095878 -0.00964633 0)
(-0.0930538 -0.00994998 0)
(-0.090146 -0.0102422 0)
(-0.0871583 -0.010521 0)
(-0.0840949 -0.0107843 0)
(-0.0809604 -0.0110298 0)
(-0.0777603 -0.0112553 0)
(-0.0745005 -0.0114583 0)
(-0.0711877 -0.0116364 0)