/*--------------------------------*- C++ -*----------------------------------*\
  =========                 |
  \\      /  F ield         | OpenFOAM: The Open Source CFD Toolbox
   \\    /   O peration     | Website:  https://openfoam.org
    \\  /    A nd           | Version:  7
     \\/     M anipulation  |
\*---------------------------------------------------------------------------*/
FoamFile
{
    version     2.0;
    format      ascii;
    class       surfaceScalarField;
    location    "0.4375";
    object      phi;
}
// * * * * * * * * * * * * * * * * * * * * * * * * * * * * * * * * * * * * * //

dimensions      [0 3 -1 0 0 0 0];

internalField   nonuniform List<scalar> 
25360
(
1.14434e-10
-1.14211e-10
3.59641e-10
-2.45208e-10
6.0425e-10
-2.44609e-10
7.65117e-10
-1.60867e-10
7.98101e-10
-3.29851e-11
6.8139e-10
1.16708e-10
4.06352e-10
2.75034e-10
-2.76825e-11
4.34033e-10
-6.16582e-10
5.889e-10
-1.35332e-09
7.36742e-10
-2.22914e-09
8.75821e-10
-3.23427e-09
1.00513e-09
-4.3584e-09
1.12413e-09
-5.59101e-09
1.23261e-09
-6.92158e-09
1.33057e-09
-8.33975e-09
1.41816e-09
-9.83539e-09
1.49565e-09
-1.13987e-08
1.56335e-09
-1.30204e-08
1.62168e-09
-1.46915e-08
1.67104e-09
-1.64033e-08
1.71188e-09
-1.8148e-08
1.74468e-09
-1.99179e-08
1.76991e-09
-2.1706e-08
1.78803e-09
-2.35055e-08
1.79953e-09
-2.53104e-08
1.80488e-09
-2.71149e-08
1.80453e-09
-2.89138e-08
1.79893e-09
-3.07024e-08
1.78852e-09
-3.24761e-08
1.77373e-09
-3.42311e-08
1.75497e-09
-3.59637e-08
1.73261e-09
-3.76707e-08
1.70705e-09
-3.93493e-08
1.67863e-09
-4.0997e-08
1.64769e-09
-4.26116e-08
1.61455e-09
-4.41911e-08
1.57952e-09
-4.5734e-08
1.54288e-09
-4.72389e-08
1.50489e-09
-4.87047e-08
1.4658e-09
-5.01305e-08
1.42584e-09
-5.15157e-08
1.38522e-09
-5.28599e-08
1.34414e-09
-5.41627e-08
1.30278e-09
-5.54239e-08
1.26129e-09
-5.66438e-08
1.21983e-09
-5.78223e-08
1.17853e-09
-5.89598e-08
1.1375e-09
-6.00567e-08
1.09686e-09
-6.11134e-08
1.0567e-09
-6.21305e-08
1.0171e-09
-6.31086e-08
9.7812e-10
-6.40484e-08
9.39829e-10
-6.49507e-08
9.02272e-10
-6.58162e-08
8.65487e-10
-6.66457e-08
8.29502e-10
-6.744e-08
7.9434e-10
-6.82e-08
7.60011e-10
-6.89265e-08
7.26521e-10
-6.96204e-08
6.93869e-10
-7.02824e-08
6.62045e-10
-7.09135e-08
6.31035e-10
-7.15143e-08
6.00817e-10
-7.20857e-08
5.71367e-10
-7.26283e-08
5.42653e-10
-7.31429e-08
5.1464e-10
-7.36302e-08
4.8729e-10
-7.40908e-08
4.60556e-10
-7.45252e-08
4.34394e-10
-7.49339e-08
4.0875e-10
-7.53175e-08
3.83573e-10
-7.56763e-08
3.58806e-10
-7.60107e-08
3.34388e-10
-7.63209e-08
3.1026e-10
-7.66073e-08
2.86355e-10
-7.68699e-08
2.6261e-10
-7.71089e-08
2.38957e-10
-7.73242e-08
2.15326e-10
-7.75158e-08
1.91647e-10
-7.76837e-08
1.67847e-10
-7.78275e-08
1.43853e-10
-7.79471e-08
1.19592e-10
-7.80421e-08
9.49911e-11
-7.81121e-08
6.99757e-11
-7.81566e-08
4.44715e-11
-7.8175e-08
1.84038e-11
-7.81667e-08
-8.3017e-12
-7.81309e-08
-3.57182e-11
-7.8067e-08
-6.39174e-11
-7.7974e-08
-9.29698e-11
-7.78511e-08
-1.22944e-10
-7.76972e-08
-1.53907e-10
-7.75113e-08
-1.85922e-10
-7.72922e-08
-2.19051e-10
-7.70389e-08
-2.53351e-10
-7.675e-08
-2.88876e-10
-7.64243e-08
-3.25675e-10
-7.60605e-08
-3.63792e-10
-7.56572e-08
-4.03264e-10
-7.52131e-08
-4.44124e-10
-7.47267e-08
-4.86396e-10
-7.41966e-08
-5.30096e-10
-7.36214e-08
-5.75231e-10
-7.29996e-08
-6.21801e-10
-7.23298e-08
-6.69795e-10
-7.16106e-08
-7.19189e-10
-7.08407e-08
-7.6995e-10
-7.00186e-08
-8.2203e-10
-6.91433e-08
-8.75367e-10
-6.82134e-08
-9.29886e-10
-6.72279e-08
-9.85497e-10
-6.61858e-08
-1.04209e-09
-6.50862e-08
-1.09955e-09
-6.39285e-08
-1.15773e-09
-6.2712e-08
-1.21646e-09
-6.14365e-08
-1.27558e-09
-6.01016e-08
-1.33487e-09
-5.87075e-08
-1.39413e-09
-5.72544e-08
-1.4531e-09
-5.57428e-08
-1.51153e-09
-5.41737e-08
-1.56914e-09
-5.25481e-08
-1.62562e-09
-5.08674e-08
-1.68064e-09
-4.91336e-08
-1.73386e-09
-4.73487e-08
-1.7849e-09
-4.55153e-08
-1.83339e-09
-4.36364e-08
-1.87892e-09
-4.17153e-08
-1.92105e-09
-3.9756e-08
-1.95934e-09
-3.77626e-08
-1.99335e-09
-3.57401e-08
-2.02258e-09
-3.36935e-08
-2.04655e-09
-3.16287e-08
-2.06478e-09
-2.9552e-08
-2.07675e-09
-2.747e-08
-2.08194e-09
-2.53902e-08
-2.07986e-09
-2.33202e-08
-2.06997e-09
-2.12684e-08
-2.05177e-09
-1.92437e-08
-2.02475e-09
-1.72553e-08
-1.98841e-09
-1.5313e-08
-1.94228e-09
-1.34271e-08
-1.88589e-09
-1.16083e-08
-1.81881e-09
-9.86764e-09
-1.74066e-09
-8.21657e-09
-1.65108e-09
-6.66679e-09
-1.54978e-09
-5.23022e-09
-1.43657e-09
-3.91885e-09
-1.31137e-09
-2.74459e-09
-1.17426e-09
-1.71905e-09
-1.02553e-09
-8.53217e-10
-8.65837e-10
-1.56912e-10
-6.96307e-10
3.61948e-10
-5.18861e-10
6.98612e-10
-3.36664e-10
8.53575e-10
-1.54962e-10
8.36073e-10
1.75035e-11
6.69925e-10
1.66149e-10
4.03887e-10
2.66038e-10
1.30767e-10
2.7312e-10
1.30767e-10
2.4552e-10
-3.59731e-10
6.3411e-10
-6.33803e-10
9.50153e-10
-5.60655e-10
1.04694e-09
-2.57653e-10
8.28613e-10
1.85339e-10
2.38687e-10
7.06633e-10
-7.51215e-10
1.26493e-09
-2.15012e-09
1.83293e-09
-3.95391e-09
2.39268e-09
-6.14959e-09
2.93242e-09
-8.71831e-09
3.44453e-09
-1.16373e-08
3.92417e-09
-1.48816e-08
4.36842e-09
-1.84247e-08
4.7757e-09
-2.22396e-08
5.14539e-09
-2.62989e-08
5.47755e-09
-3.05761e-08
5.77275e-09
-3.50446e-08
6.03189e-09
-3.96791e-08
6.25616e-09
-4.4455e-08
6.44695e-09
-4.93488e-08
6.60575e-09
-5.43384e-08
6.73419e-09
-5.94024e-08
6.83393e-09
-6.4521e-08
6.90667e-09
-6.96756e-08
6.95412e-09
-7.48487e-08
6.97801e-09
-8.00242e-08
6.98002e-09
-8.51871e-08
6.96183e-09
-9.03237e-08
6.92506e-09
-9.54212e-08
6.8713e-09
-1.00468e-07
6.80209e-09
-1.05455e-07
6.7189e-09
-1.10371e-07
6.62316e-09
-1.15208e-07
6.51621e-09
-1.1996e-07
6.39935e-09
-1.24619e-07
6.2738e-09
-1.2918e-07
6.14072e-09
-1.33639e-07
6.0012e-09
-1.3799e-07
5.85625e-09
-1.42231e-07
5.70683e-09
-1.46359e-07
5.55383e-09
-1.50372e-07
5.39807e-09
-1.54268e-07
5.2403e-09
-1.58047e-07
5.08123e-09
-1.61707e-07
4.92149e-09
-1.65249e-07
4.76166e-09
-1.68672e-07
4.60225e-09
-1.71979e-07
4.44374e-09
-1.75168e-07
4.28655e-09
-1.78243e-07
4.13104e-09
-1.81203e-07
3.97753e-09
-1.84051e-07
3.8263e-09
-1.86789e-07
3.67758e-09
-1.89418e-07
3.53156e-09
-1.91941e-07
3.38841e-09
-1.9436e-07
3.24824e-09
-1.96677e-07
3.11114e-09
-1.98894e-07
2.97716e-09
-2.01014e-07
2.84633e-09
-2.03038e-07
2.71865e-09
-2.0497e-07
2.59409e-09
-2.06812e-07
2.4726e-09
-2.08565e-07
2.35411e-09
-2.10232e-07
2.23851e-09
-2.11815e-07
2.1257e-09
-2.13316e-07
2.01555e-09
-2.14737e-07
1.9079e-09
-2.16079e-07
1.8026e-09
-2.17344e-07
1.69945e-09
-2.18534e-07
1.59828e-09
-2.19649e-07
1.49887e-09
-2.20691e-07
1.40101e-09
-2.21661e-07
1.30447e-09
-2.2256e-07
1.20903e-09
-2.23388e-07
1.11442e-09
-2.24146e-07
1.02041e-09
-2.24834e-07
9.2673e-10
-2.25451e-07
8.33121e-10
-2.25999e-07
7.39311e-10
-2.26476e-07
6.45027e-10
-2.26882e-07
5.49988e-10
-2.27217e-07
4.53915e-10
-2.27478e-07
3.56525e-10
-2.27666e-07
2.57533e-10
-2.27778e-07
1.56657e-10
-2.27813e-07
5.36134e-11
-2.2777e-07
-5.18782e-11
-2.27645e-07
-1.60096e-10
-2.27438e-07
-2.71313e-10
-2.27145e-07
-3.85797e-10
-2.26764e-07
-5.03807e-10
-2.26292e-07
-6.25596e-10
-2.25727e-07
-7.51403e-10
-2.25065e-07
-8.81458e-10
-2.24302e-07
-1.01598e-09
-2.23436e-07
-1.15515e-09
-2.22462e-07
-1.29918e-09
-2.21378e-07
-1.4482e-09
-2.20179e-07
-1.60236e-09
-2.18861e-07
-1.76178e-09
-2.17421e-07
-1.92653e-09
-2.15854e-07
-2.09668e-09
-2.14157e-07
-2.27223e-09
-2.12326e-07
-2.45318e-09
-2.10356e-07
-2.63947e-09
-2.08244e-07
-2.83099e-09
-2.05987e-07
-3.02762e-09
-2.0358e-07
-3.22915e-09
-2.0102e-07
-3.43533e-09
-1.98304e-07
-3.64587e-09
-1.95429e-07
-3.86041e-09
-1.92392e-07
-4.07851e-09
-1.89192e-07
-4.29971e-09
-1.85826e-07
-4.52344e-09
-1.82294e-07
-4.74907e-09
-1.78593e-07
-4.97592e-09
-1.74725e-07
-5.20319e-09
-1.70689e-07
-5.43006e-09
-1.66487e-07
-5.65558e-09
-1.6212e-07
-5.87874e-09
-1.5759e-07
-6.09847e-09
-1.52902e-07
-6.31358e-09
-1.4806e-07
-6.52284e-09
-1.43069e-07
-6.72491e-09
-1.37935e-07
-6.91839e-09
-1.32667e-07
-7.10181e-09
-1.27272e-07
-7.2736e-09
-1.21761e-07
-7.43216e-09
-1.16145e-07
-7.57581e-09
-1.10435e-07
-7.70281e-09
-1.04647e-07
-7.81138e-09
-9.87934e-08
-7.89968e-09
-9.28923e-08
-7.96585e-09
-8.69611e-08
-8.00801e-09
-8.10188e-08
-8.02425e-09
-7.5086e-08
-8.01266e-09
-6.91846e-08
-7.97136e-09
-6.33379e-08
-7.89846e-09
-5.75705e-08
-7.79214e-09
-5.19083e-08
-7.65063e-09
-4.63783e-08
-7.47223e-09
-4.10088e-08
-7.25536e-09
-3.58291e-08
-6.9986e-09
-3.0869e-08
-6.70067e-09
-2.61595e-08
-6.36058e-09
-2.17317e-08
-5.9776e-09
-1.76169e-08
-5.55143e-09
-1.38459e-08
-5.08232e-09
-1.0449e-08
-4.57123e-09
-7.45434e-09
-4.02015e-09
-4.88766e-09
-3.43251e-09
-2.77019e-09
-2.81378e-09
-1.11662e-09
-2.17242e-09
6.81208e-11
-1.52141e-09
7.93679e-10
-8.80521e-10
1.09111e-09
-2.79932e-10
1.02282e-09
2.34439e-10
6.95397e-10
5.93467e-10
2.73146e-10
6.95371e-10
4.03913e-10
2.4587e-10
-6.05601e-10
5.63615e-10
-9.51551e-10
6.98031e-10
-6.95076e-10
4.75122e-10
-3.47482e-11
-2.2481e-10
8.85269e-10
-1.47765e-09
1.95948e-09
-3.3253e-09
3.11258e-09
-5.78429e-09
4.29192e-09
-8.85264e-09
5.46103e-09
-1.2515e-08
6.5948e-09
-1.67467e-08
7.67616e-09
-2.15162e-08
8.69376e-09
-2.67881e-08
9.64028e-09
-3.25238e-08
1.05114e-08
-3.86834e-08
1.1305e-08
-4.52262e-08
1.20203e-08
-5.21115e-08
1.26581e-08
-5.92994e-08
1.32197e-08
-6.67506e-08
1.37074e-08
-7.44273e-08
1.41236e-08
-8.22929e-08
1.44714e-08
-9.03126e-08
1.47539e-08
-9.84533e-08
1.49746e-08
-1.06684e-07
1.5137e-08
-1.14974e-07
1.52446e-08
-1.23297e-07
1.5301e-08
-1.31627e-07
1.53098e-08
-1.39939e-07
1.52745e-08
-1.48213e-07
1.51986e-08
-1.56427e-07
1.50855e-08
-1.64564e-07
1.49385e-08
-1.72606e-07
1.47608e-08
-1.80538e-07
1.45554e-08
-1.88347e-07
1.43252e-08
-1.9602e-07
1.4073e-08
-2.03548e-07
1.38015e-08
-2.10921e-07
1.35133e-08
-2.1813e-07
1.32106e-08
-2.2517e-07
1.28957e-08
-2.32033e-07
1.25707e-08
-2.38717e-07
1.22376e-08
-2.45217e-07
1.18981e-08
-2.51531e-07
1.15538e-08
-2.57656e-07
1.12064e-08
-2.63592e-07
1.08573e-08
-2.69338e-07
1.05076e-08
-2.74894e-07
1.01586e-08
-2.80261e-07
9.81128e-09
-2.85442e-07
9.46659e-09
-2.90436e-07
9.12533e-09
-2.95246e-07
8.78822e-09
-2.99876e-07
8.45587e-09
-3.04327e-07
8.12882e-09
-3.08603e-07
7.80749e-09
-3.12707e-07
7.49224e-09
-3.16642e-07
7.18335e-09
-3.20412e-07
6.88101e-09
-3.2402e-07
6.58536e-09
-3.2747e-07
6.29647e-09
-3.30766e-07
6.01434e-09
-3.33911e-07
5.73892e-09
-3.36908e-07
5.4701e-09
-3.39762e-07
5.20774e-09
-3.42475e-07
4.95164e-09
-3.45051e-07
4.70154e-09
-3.47493e-07
4.45718e-09
-3.49803e-07
4.21822e-09
-3.51985e-07
3.98432e-09
-3.5404e-07
3.75508e-09
-3.55972e-07
3.5301e-09
-3.57782e-07
3.30892e-09
-3.59472e-07
3.09109e-09
-3.61044e-07
2.87612e-09
-3.62498e-07
2.66348e-09
-3.63837e-07
2.45265e-09
-3.65059e-07
2.24309e-09
-3.66167e-07
2.03424e-09
-3.67159e-07
1.8255e-09
-3.68036e-07
1.61631e-09
-3.68797e-07
1.40607e-09
-3.69441e-07
1.19417e-09
-3.69967e-07
9.79993e-10
-3.70374e-07
7.62935e-10
-3.70659e-07
5.42378e-10
-3.7082e-07
3.17707e-10
-3.70854e-07
8.83075e-11
-3.7076e-07
-1.46427e-10
-3.70533e-07
-3.87096e-10
-3.7017e-07
-6.34291e-10
-3.69667e-07
-8.88589e-10
-3.6902e-07
-1.15055e-09
-3.68225e-07
-1.42071e-09
-3.67277e-07
-1.69959e-09
-3.66171e-07
-1.98769e-09
-3.64901e-07
-2.28545e-09
-3.63463e-07
-2.5933e-09
-3.61851e-07
-2.91163e-09
-3.60058e-07
-3.24077e-09
-3.58079e-07
-3.581e-09
-3.55909e-07
-3.93257e-09
-3.5354e-07
-4.29563e-09
-3.50966e-07
-4.6703e-09
-3.48182e-07
-5.05659e-09
-3.4518e-07
-5.45446e-09
-3.41956e-07
-5.86377e-09
-3.38503e-07
-6.28429e-09
-3.34815e-07
-6.71568e-09
-3.30886e-07
-7.15751e-09
-3.26712e-07
-7.60922e-09
-3.22288e-07
-8.07014e-09
-3.17609e-07
-8.53947e-09
-3.12671e-07
-9.01626e-09
-3.07472e-07
-9.49945e-09
-3.02007e-07
-9.98781e-09
-2.96276e-07
-1.048e-08
-2.90278e-07
-1.09744e-08
-2.84012e-07
-1.14693e-08
-2.77479e-07
-1.1963e-08
-2.70681e-07
-1.24533e-08
-2.63622e-07
-1.29381e-08
-2.56305e-07
-1.34151e-08
-2.48737e-07
-1.38815e-08
-2.40925e-07
-1.43348e-08
-2.32878e-07
-1.4772e-08
-2.24606e-07
-1.51902e-08
-2.16122e-07
-1.55861e-08
-2.07439e-07
-1.59563e-08
-1.98574e-07
-1.62974e-08
-1.89544e-07
-1.66057e-08
-1.80369e-07
-1.68776e-08
-1.71071e-07
-1.71092e-08
-1.61675e-07
-1.72965e-08
-1.52205e-07
-1.74355e-08
-1.42691e-07
-1.75224e-08
-1.33162e-07
-1.75529e-08
-1.23651e-07
-1.75231e-08
-1.14194e-07
-1.7429e-08
-1.04826e-07
-1.72667e-08
-9.55855e-08
-1.70323e-08
-8.65139e-08
-1.67222e-08
-7.76531e-08
-1.6333e-08
-6.90469e-08
-1.58616e-08
-6.07404e-08
-1.53051e-08
-5.27798e-08
-1.46612e-08
-4.52121e-08
-1.39283e-08
-3.80845e-08
-1.31053e-08
-3.14437e-08
-1.21922e-08
-2.53358e-08
-1.11903e-08
-1.98044e-08
-1.01026e-08
-1.489e-08
-8.93455e-09
-1.0628e-08
-7.69453e-09
-7.04632e-09
-6.39544e-09
-4.16241e-09
-5.05633e-09
-1.97879e-09
-3.70502e-09
-4.77436e-10
-2.38188e-09
3.87887e-10
-1.14526e-09
7.01327e-10
-7.90015e-11
5.96169e-10
6.98626e-10
2.66935e-10
1.02461e-09
6.70848e-10
1.63817e-10
-7.69418e-10
2.64897e-10
-1.05263e-09
4.44689e-11
-4.74651e-10
-6.77852e-10
6.87569e-10
-2.02884e-09
2.23625e-09
-4.09172e-09
4.02236e-09
-6.9146e-09
5.93546e-09
-1.0518e-08
7.89533e-09
-1.49012e-08
9.84425e-09
-2.00474e-08
1.1741e-08
-2.59279e-08
1.35567e-08
-3.25053e-08
1.52711e-08
-3.9736e-08
1.6871e-08
-4.75726e-08
1.83479e-08
-5.59647e-08
1.96971e-08
-6.48611e-08
2.09167e-08
-7.42097e-08
2.20067e-08
-8.3959e-08
2.2969e-08
-9.40582e-08
2.38067e-08
-1.04458e-07
2.45235e-08
-1.15111e-07
2.51242e-08
-1.25971e-07
2.56138e-08
-1.36994e-07
2.59979e-08
-1.48139e-07
2.62821e-08
-1.59367e-07
2.64725e-08
-1.70641e-07
2.65749e-08
-1.81927e-07
2.65953e-08
-1.93192e-07
2.65396e-08
-2.04407e-07
2.64138e-08
-2.15545e-07
2.62236e-08
-2.26581e-07
2.59745e-08
-2.37492e-07
2.5672e-08
-2.48258e-07
2.53213e-08
-2.58861e-07
2.49274e-08
-2.69283e-07
2.44951e-08
-2.7951e-07
2.4029e-08
-2.8953e-07
2.35334e-08
-2.99332e-07
2.30123e-08
-3.08906e-07
2.24697e-08
-3.18244e-07
2.19091e-08
-3.27341e-07
2.13339e-08
-3.3619e-07
2.07472e-08
-3.44788e-07
2.01519e-08
-3.53132e-07
1.95507e-08
-3.61221e-07
1.89459e-08
-3.69053e-07
1.834e-08
-3.76629e-07
1.77347e-08
-3.8395e-07
1.7132e-08
-3.91017e-07
1.65335e-08
-3.97832e-07
1.59406e-08
-4.04398e-07
1.53545e-08
-4.10719e-07
1.47764e-08
-4.16797e-07
1.42071e-08
-4.22637e-07
1.36475e-08
-4.28243e-07
1.30981e-08
-4.33619e-07
1.25596e-08
-4.3877e-07
1.20321e-08
-4.43701e-07
1.1516e-08
-4.48416e-07
1.10115e-08
-4.5292e-07
1.05184e-08
-4.57218e-07
1.00368e-08
-4.61314e-07
9.56652e-09
-4.65214e-07
9.10725e-09
-4.68921e-07
8.65868e-09
-4.7244e-07
8.2204e-09
-4.75774e-07
7.79192e-09
-4.78929e-07
7.37271e-09
-4.81907e-07
6.96215e-09
-4.84711e-07
6.55959e-09
-4.87345e-07
6.16431e-09
-4.89812e-07
5.77556e-09
-4.92113e-07
5.39253e-09
-4.94252e-07
5.01438e-09
-4.96228e-07
4.64023e-09
-4.98045e-07
4.26916e-09
-4.99702e-07
3.90025e-09
-5.012e-07
3.53251e-09
-5.0254e-07
3.16496e-09
-5.0372e-07
2.79659e-09
-5.0474e-07
2.42637e-09
-5.05599e-07
2.05326e-09
-5.06296e-07
1.67622e-09
-5.06827e-07
1.29418e-09
-5.07191e-07
9.06096e-10
-5.07384e-07
5.109e-10
-5.07403e-07
1.07543e-10
-5.07244e-07
-3.05019e-10
-5.06904e-07
-7.27813e-10
-5.06376e-07
-1.16185e-09
-5.05657e-07
-1.60812e-09
-5.0474e-07
-2.06757e-09
-5.03619e-07
-2.54114e-09
-5.02289e-07
-3.02969e-09
-5.00743e-07
-3.53407e-09
-4.98973e-07
-4.05505e-09
-4.96973e-07
-4.59334e-09
-4.94735e-07
-5.14959e-09
-4.92251e-07
-5.72436e-09
-4.89514e-07
-6.31813e-09
-4.86516e-07
-6.93128e-09
-4.83247e-07
-7.56409e-09
-4.79701e-07
-8.21669e-09
-4.75868e-07
-8.88913e-09
-4.71741e-07
-9.58128e-09
-4.67312e-07
-1.02929e-08
-4.62573e-07
-1.10235e-08
-4.57516e-07
-1.17726e-08
-4.52134e-07
-1.25393e-08
-4.46421e-07
-1.33227e-08
-4.40369e-07
-1.41216e-08
-4.33974e-07
-1.49346e-08
-4.2723e-07
-1.576e-08
-4.20134e-07
-1.65959e-08
-4.12681e-07
-1.74403e-08
-4.04871e-07
-1.82907e-08
-3.96701e-07
-1.91445e-08
-3.88171e-07
-1.99987e-08
-3.79284e-07
-2.085e-08
-3.70042e-07
-2.16951e-08
-3.60451e-07
-2.25301e-08
-3.50515e-07
-2.33509e-08
-3.40243e-07
-2.4153e-08
-3.29646e-07
-2.4932e-08
-3.18735e-07
-2.56827e-08
-3.07526e-07
-2.63999e-08
-2.96033e-07
-2.70783e-08
-2.84278e-07
-2.7712e-08
-2.7228e-07
-2.8295e-08
-2.60065e-07
-2.88212e-08
-2.47658e-07
-2.92842e-08
-2.3509e-07
-2.96775e-08
-2.22392e-07
-2.99944e-08
-2.09599e-07
-3.02281e-08
-1.9675e-07
-3.03719e-08
-1.83884e-07
-3.0419e-08
-1.71044e-07
-3.03625e-08
-1.58278e-07
-3.01957e-08
-1.45632e-07
-2.99122e-08
-1.33159e-07
-2.95057e-08
-1.2091e-07
-2.89703e-08
-1.08943e-07
-2.83003e-08
-9.73139e-08
-2.74908e-08
-8.60815e-08
-2.65376e-08
-7.53056e-08
-2.54371e-08
-6.50468e-08
-2.41871e-08
-5.53654e-08
-2.27867e-08
-4.63209e-08
-2.12367e-08
-3.79707e-08
-1.95404e-08
-3.03693e-08
-1.7704e-08
-2.35661e-08
-1.57378e-08
-1.76033e-08
-1.36573e-08
-1.25134e-08
-1.14853e-08
-8.31545e-09
-9.25426e-09
-5.01053e-09
-7.00994e-09
-2.57601e-09
-4.81639e-09
-9.58616e-10
-2.76265e-09
-6.59192e-11
-9.71698e-10
2.43033e-10
3.89674e-10
1.69033e-10
1.09861e-09
8.39882e-10
3.77912e-11
-8.07211e-10
-1.74065e-10
-8.40777e-10
-8.70411e-10
2.21693e-10
-2.22134e-09
2.03849e-09
-4.34865e-09
4.36355e-09
-7.33388e-09
7.00759e-09
-1.1225e-08
9.82658e-09
-1.60426e-08
1.27129e-08
-2.17851e-08
1.55867e-08
-2.84337e-08
1.83897e-08
-3.59563e-08
2.10793e-08
-4.43106e-08
2.36254e-08
-5.34469e-08
2.60074e-08
-6.33105e-08
2.82115e-08
-7.38429e-08
3.02296e-08
-8.4984e-08
3.20577e-08
-9.66725e-08
3.36952e-08
-1.08847e-07
3.51438e-08
-1.21448e-07
3.64073e-08
-1.34415e-07
3.74908e-08
-1.47692e-07
3.84007e-08
-1.61222e-07
3.91443e-08
-1.74954e-07
3.97294e-08
-1.88836e-07
4.01642e-08
-2.02821e-07
4.04573e-08
-2.16863e-07
4.06176e-08
-2.30922e-07
4.06538e-08
-2.44957e-07
4.05747e-08
-2.58932e-07
4.0389e-08
-2.72814e-07
4.01053e-08
-2.86571e-07
3.97319e-08
-3.00176e-07
3.9277e-08
-3.13603e-07
3.87484e-08
-3.26829e-07
3.81536e-08
-3.39834e-07
3.75e-08
-3.526e-07
3.67943e-08
-3.65109e-07
3.60432e-08
-3.7735e-07
3.52528e-08
-3.89309e-07
3.4429e-08
-4.00977e-07
3.35772e-08
-4.12346e-07
3.27026e-08
-4.23409e-07
3.18099e-08
-4.3416e-07
3.09036e-08
-4.44597e-07
2.99876e-08
-4.54717e-07
2.90658e-08
-4.64519e-07
2.81415e-08
-4.74002e-07
2.72178e-08
-4.83167e-07
2.62975e-08
-4.92017e-07
2.53831e-08
-5.00553e-07
2.44768e-08
-5.08779e-07
2.35805e-08
-5.16699e-07
2.26959e-08
-5.24316e-07
2.18244e-08
-5.31636e-07
2.09673e-08
-5.38663e-07
2.01254e-08
-5.45403e-07
1.92997e-08
-5.51862e-07
1.84906e-08
-5.58044e-07
1.76985e-08
-5.63957e-07
1.69238e-08
-5.69605e-07
1.61663e-08
-5.74994e-07
1.54261e-08
-5.8013e-07
1.47028e-08
-5.85019e-07
1.39962e-08
-5.89666e-07
1.33057e-08
-5.94077e-07
1.26307e-08
-5.98255e-07
1.19705e-08
-6.02207e-07
1.13243e-08
-6.05936e-07
1.06911e-08
-6.09446e-07
1.007e-08
-6.12742e-07
9.45994e-09
-6.15826e-07
8.85967e-09
-6.18701e-07
8.26803e-09
-6.21371e-07
7.68375e-09
-6.23836e-07
7.10548e-09
-6.26099e-07
6.53186e-09
-6.2816e-07
5.96145e-09
-6.3002e-07
5.39279e-09
-6.3168e-07
4.82438e-09
-6.33138e-07
4.25469e-09
-6.34393e-07
3.68216e-09
-6.35445e-07
3.10522e-09
-6.36291e-07
2.52228e-09
-6.36929e-07
1.93174e-09
-6.37355e-07
1.33201e-09
-6.37566e-07
7.21469e-10
-6.37557e-07
9.85435e-11
-6.37323e-07
-5.38347e-10
-6.3686e-07
-1.19075e-09
-6.36162e-07
-1.8602e-09
-6.35222e-07
-2.54818e-09
-6.34033e-07
-3.25612e-09
-6.32589e-07
-3.98542e-09
-6.30881e-07
-4.73739e-09
-6.28902e-07
-5.51328e-09
-6.26643e-07
-6.31426e-09
-6.24095e-07
-7.14138e-09
-6.21249e-07
-7.99561e-09
-6.18095e-07
-8.87777e-09
-6.14625e-07
-9.78857e-09
-6.10828e-07
-1.07286e-08
-6.06694e-07
-1.16981e-08
-6.02213e-07
-1.26974e-08
-5.97375e-07
-1.37266e-08
-5.92171e-07
-1.47853e-08
-5.86591e-07
-1.58731e-08
-5.80625e-07
-1.69895e-08
-5.74264e-07
-1.81334e-08
-5.675e-07
-1.93036e-08
-5.60324e-07
-2.04986e-08
-5.52729e-07
-2.17166e-08
-5.44708e-07
-2.29554e-08
-5.36256e-07
-2.42125e-08
-5.27367e-07
-2.5485e-08
-5.18037e-07
-2.67696e-08
-5.08265e-07
-2.80627e-08
-4.9805e-07
-2.93603e-08
-4.8739e-07
-3.06578e-08
-4.7629e-07
-3.19503e-08
-4.64753e-07
-3.32325e-08
-4.52784e-07
-3.44987e-08
-4.40392e-07
-3.57426e-08
-4.27588e-07
-3.69576e-08
-4.14383e-07
-3.81366e-08
-4.00794e-07
-3.92721e-08
-3.86837e-07
-4.03563e-08
-3.72535e-07
-4.13808e-08
-3.5791e-07
-4.2337e-08
-3.42989e-07
-4.32159e-08
-3.27802e-07
-4.40082e-08
-3.12382e-07
-4.47043e-08
-2.96765e-07
-4.52945e-08
-2.80991e-07
-4.57688e-08
-2.65102e-07
-4.61171e-08
-2.49144e-07
-4.63292e-08
-2.33168e-07
-4.63951e-08
-2.17226e-07
-4.63046e-08
-2.01374e-07
-4.60481e-08
-1.8567e-07
-4.56158e-08
-1.70177e-07
-4.49987e-08
-1.54959e-07
-4.41882e-08
-1.40083e-07
-4.31763e-08
-1.25618e-07
-4.19562e-08
-1.11633e-07
-4.0522e-08
-9.82014e-08
-3.88691e-08
-8.53934e-08
-3.69951e-08
-7.32807e-08
-3.48994e-08
-6.19329e-08
-3.25844e-08
-5.14172e-08
-3.00562e-08
-4.1796e-08
-2.73252e-08
-3.3126e-08
-2.44079e-08
-2.54548e-08
-2.13285e-08
-1.8819e-08
-1.81212e-08
-1.32396e-08
-1.48336e-08
-8.71848e-09
-1.15311e-08
-5.23287e-09
-8.302e-09
-2.72952e-09
-5.26601e-09
-1.11792e-09
-2.58329e-09
-2.6306e-10
-4.65186e-10
2.32865e-11
8.12259e-10
8.63169e-10
-1.10578e-10
-6.96637e-10
-6.93957e-10
-2.574e-10
-1.94601e-09
1.47374e-09
-4.01457e-09
4.10706e-09
-7.00746e-09
7.35644e-09
-1.09975e-08
1.09976e-08
-1.6027e-08
1.48561e-08
-2.21128e-08
1.87987e-08
-2.92503e-08
2.27242e-08
-3.74173e-08
2.65566e-08
-4.65778e-08
3.02397e-08
-5.6685e-08
3.37326e-08
-6.76839e-08
3.70063e-08
-7.95136e-08
4.00412e-08
-9.2109e-08
4.2825e-08
-1.05402e-07
4.53512e-08
-1.19325e-07
4.76178e-08
-1.33807e-07
4.96262e-08
-1.48781e-07
5.13807e-08
-1.64178e-07
5.28878e-08
-1.79933e-07
5.41556e-08
-1.95982e-07
5.51935e-08
-2.12265e-07
5.60118e-08
-2.28722e-07
5.66216e-08
-2.45299e-07
5.70345e-08
-2.61944e-07
5.72622e-08
-2.78607e-07
5.73169e-08
-2.95243e-07
5.72104e-08
-3.11808e-07
5.69549e-08
-3.28265e-07
5.65619e-08
-3.44576e-07
5.60432e-08
-3.60709e-07
5.54098e-08
-3.76634e-07
5.46728e-08
-3.92322e-07
5.38425e-08
-4.07751e-07
5.29291e-08
-4.22899e-07
5.19421e-08
-4.37747e-07
5.08907e-08
-4.52278e-07
4.97836e-08
-4.66477e-07
4.86288e-08
-4.80334e-07
4.74342e-08
-4.93839e-07
4.62068e-08
-5.06982e-07
4.49533e-08
-5.19758e-07
4.368e-08
-5.32163e-07
4.23926e-08
-5.44194e-07
4.10962e-08
-5.55848e-07
3.97958e-08
-5.67126e-07
3.84956e-08
-5.78028e-07
3.71995e-08
-5.88556e-07
3.59112e-08
-5.98713e-07
3.46337e-08
-6.08502e-07
3.33697e-08
-6.17928e-07
3.21217e-08
-6.26995e-07
3.08917e-08
-6.35709e-07
2.96813e-08
-6.44076e-07
2.8492e-08
-6.52101e-07
2.7325e-08
-6.59791e-07
2.6181e-08
-6.67153e-07
2.50606e-08
-6.74194e-07
2.39641e-08
-6.80919e-07
2.28917e-08
-6.87336e-07
2.18432e-08
-6.93452e-07
2.08184e-08
-6.99272e-07
1.98166e-08
-7.04804e-07
1.88373e-08
-7.10052e-07
1.78795e-08
-7.15024e-07
1.69424e-08
-7.19725e-07
1.60247e-08
-7.24159e-07
1.51252e-08
-7.28331e-07
1.42425e-08
-7.32246e-07
1.33751e-08
-7.35908e-07
1.25214e-08
-7.39319e-07
1.16797e-08
-7.42484e-07
1.08483e-08
-7.45404e-07
1.00252e-08
-7.4808e-07
9.20856e-09
-7.50515e-07
8.39639e-09
-7.52709e-07
7.58661e-09
-7.54662e-07
6.77715e-09
-7.56373e-07
5.96586e-09
-7.57841e-07
5.15056e-09
-7.59065e-07
4.32906e-09
-7.60042e-07
3.49913e-09
-7.60769e-07
2.65856e-09
-7.61242e-07
1.80509e-09
-7.61457e-07
9.36513e-10
-7.61409e-07
5.05954e-11
-7.61093e-07
-8.54852e-10
-7.60501e-07
-1.78199e-09
-7.59629e-07
-2.73295e-09
-7.58467e-07
-3.70978e-09
-7.57009e-07
-4.71449e-09
-7.55245e-07
-5.749e-09
-7.53167e-07
-6.81514e-09
-7.50766e-07
-7.91463e-09
-7.48031e-07
-9.04908e-09
-7.44953e-07
-1.022e-08
-7.4152e-07
-1.14286e-08
-7.37721e-07
-1.2676e-08
-7.33547e-07
-1.39634e-08
-7.28984e-07
-1.52912e-08
-7.24022e-07
-1.66602e-08
-7.18649e-07
-1.80704e-08
-7.12854e-07
-1.9522e-08
-7.06624e-07
-2.10145e-08
-6.9995e-07
-2.25474e-08
-6.9282e-07
-2.41197e-08
-6.85223e-07
-2.57299e-08
-6.7715e-07
-2.73765e-08
-6.68592e-07
-2.90571e-08
-6.59539e-07
-3.07693e-08
-6.49985e-07
-3.25099e-08
-6.39922e-07
-3.42753e-08
-6.29345e-07
-3.60616e-08
-6.18251e-07
-3.78641e-08
-6.06636e-07
-3.96777e-08
-5.94499e-07
-4.14967e-08
-5.81842e-07
-4.33148e-08
-5.68668e-07
-4.51251e-08
-5.5498e-07
-4.69202e-08
-5.40787e-07
-4.86919e-08
-5.26098e-07
-5.04316e-08
-5.10925e-07
-5.21301e-08
-4.95285e-07
-5.37774e-08
-4.79193e-07
-5.53632e-08
-4.62673e-07
-5.68764e-08
-4.45749e-07
-5.83055e-08
-4.28447e-07
-5.96385e-08
-4.108e-07
-6.08628e-08
-3.92843e-07
-6.19657e-08
-3.74613e-07
-6.29338e-08
-3.56154e-07
-6.37536e-08
-3.37511e-07
-6.44114e-08
-3.18735e-07
-6.48932e-08
-2.99879e-07
-6.51852e-08
-2.81001e-07
-6.52733e-08
-2.62162e-07
-6.5144e-08
-2.43426e-07
-6.47838e-08
-2.24862e-07
-6.41798e-08
-2.06541e-07
-6.33196e-08
-1.88537e-07
-6.21919e-08
-1.70928e-07
-6.07862e-08
-1.5379e-07
-5.90935e-08
-1.37206e-07
-5.71064e-08
-1.21255e-07
-5.48196e-08
-1.0602e-07
-5.22304e-08
-9.15802e-08
-4.93392e-08
-7.80141e-08
-4.61505e-08
-6.53966e-08
-4.26736e-08
-5.37975e-08
-3.89243e-08
-4.32791e-08
-3.49262e-08
-3.38946e-08
-3.0713e-08
-2.56845e-08
-2.63313e-08
-1.86736e-08
-2.18446e-08
-1.28671e-08
-1.73376e-08
-8.24635e-09
-1.29228e-08
-4.76418e-09
-8.74818e-09
-2.33993e-09
-5.00754e-09
-8.5462e-10
-1.9505e-09
-1.45831e-10
1.0347e-10
7.17339e-10
-2.68844e-10
-4.27795e-10
-1.25599e-09
7.29743e-10
-3.11216e-09
3.32991e-09
-5.95567e-09
6.95056e-09
-9.87397e-09
1.12747e-08
-1.49257e-08
1.60493e-08
-2.11433e-08
2.10738e-08
-2.85363e-08
2.61917e-08
-3.70944e-08
3.12823e-08
-4.67905e-08
3.62527e-08
-5.7584e-08
4.10332e-08
-6.94232e-08
4.55718e-08
-8.2248e-08
4.98311e-08
-9.59919e-08
5.37851e-08
-1.10584e-07
5.7417e-08
-1.2595e-07
6.07172e-08
-1.42014e-07
6.36822e-08
-1.58701e-07
6.63128e-08
-1.75934e-07
6.86137e-08
-1.93639e-07
7.05925e-08
-2.11742e-07
7.2259e-08
-2.30173e-07
7.36248e-08
-2.48864e-07
7.47029e-08
-2.6775e-07
7.55075e-08
-2.86769e-07
7.60531e-08
-3.05862e-07
7.6355e-08
-3.24973e-07
7.64287e-08
-3.44052e-07
7.62896e-08
-3.63051e-07
7.59534e-08
-3.81925e-07
7.54354e-08
-4.00632e-07
7.47506e-08
-4.19136e-07
7.39137e-08
-4.37402e-07
7.2939e-08
-4.554e-07
7.18403e-08
-4.73102e-07
7.06308e-08
-4.90483e-07
6.93231e-08
-5.07521e-07
6.79294e-08
-5.24199e-07
6.6461e-08
-5.40498e-07
6.49287e-08
-5.56407e-07
6.33428e-08
-5.71913e-07
6.17126e-08
-5.87007e-07
6.00471e-08
-6.01681e-07
5.83546e-08
-6.15931e-07
5.66425e-08
-6.29753e-07
5.49179e-08
-6.43144e-07
5.31871e-08
-6.56104e-07
5.1456e-08
-6.68635e-07
4.97298e-08
-6.80737e-07
4.80132e-08
-6.92413e-07
4.63103e-08
-7.03669e-07
4.46249e-08
-7.14507e-07
4.29601e-08
-7.24934e-07
4.13187e-08
-7.34956e-07
3.97029e-08
-7.44578e-07
3.81146e-08
-7.53809e-07
3.65555e-08
-7.62654e-07
3.50265e-08
-7.71122e-07
3.35285e-08
-7.7922e-07
3.20619e-08
-7.86955e-07
3.06269e-08
-7.94335e-07
2.92234e-08
-8.01368e-07
2.7851e-08
-8.0806e-07
2.6509e-08
-8.14419e-07
2.51965e-08
-8.20452e-07
2.39125e-08
-8.26166e-07
2.26556e-08
-8.31565e-07
2.14244e-08
-8.36657e-07
2.02171e-08
-8.41447e-07
1.9032e-08
-8.45939e-07
1.78671e-08
-8.50138e-07
1.67202e-08
-8.54047e-07
1.55892e-08
-8.57671e-07
1.44717e-08
-8.61011e-07
1.33651e-08
-8.64069e-07
1.22671e-08
-8.66848e-07
1.11749e-08
-8.69347e-07
1.00859e-08
-8.71567e-07
8.99717e-09
-8.73507e-07
7.90602e-09
-8.75166e-07
6.80955e-09
-8.76542e-07
5.70484e-09
-8.77632e-07
4.58897e-09
-8.78432e-07
3.45899e-09
-8.78939e-07
2.31195e-09
-8.79147e-07
1.1449e-09
-8.79052e-07
-4.50675e-11
-8.78646e-07
-1.26086e-09
-8.77922e-07
-2.50532e-09
-8.76874e-07
-3.78123e-09
-8.75493e-07
-5.09133e-09
-8.73769e-07
-6.43822e-09
-8.71693e-07
-7.82444e-09
-8.69256e-07
-9.25239e-09
-8.66446e-07
-1.07243e-08
-8.63253e-07
-1.22423e-08
-8.59665e-07
-1.38083e-08
-8.55669e-07
-1.5424e-08
-8.51255e-07
-1.70909e-08
-8.46408e-07
-1.88101e-08
-8.41116e-07
-2.05827e-08
-8.35367e-07
-2.24093e-08
-8.29147e-07
-2.42901e-08
-8.22444e-07
-2.62251e-08
-8.15245e-07
-2.82139e-08
-8.07537e-07
-3.02555e-08
-7.99308e-07
-3.23487e-08
-7.90546e-07
-3.44915e-08
-7.81241e-07
-3.66817e-08
-7.71382e-07
-3.89163e-08
-7.60959e-07
-4.11918e-08
-7.49965e-07
-4.35043e-08
-7.38391e-07
-4.58488e-08
-7.26233e-07
-4.82201e-08
-7.13485e-07
-5.0612e-08
-7.00145e-07
-5.30177e-08
-6.86212e-07
-5.54296e-08
-6.71688e-07
-5.78394e-08
-6.56575e-07
-6.02379e-08
-6.4088e-07
-6.26155e-08
-6.2461e-07
-6.49612e-08
-6.07778e-07
-6.72638e-08
-5.90397e-07
-6.95108e-08
-5.72485e-07
-7.16895e-08
-5.54063e-07
-7.37859e-08
-5.35154e-07
-7.57856e-08
-5.15786e-07
-7.76734e-08
-4.95991e-07
-7.94335e-08
-4.75804e-07
-8.10496e-08
-4.55265e-07
-8.25047e-08
-4.34417e-07
-8.37814e-08
-4.13309e-07
-8.48621e-08
-3.91992e-07
-8.57287e-08
-3.70522e-07
-8.63631e-08
-3.4896e-07
-8.67473e-08
-3.2737e-07
-8.68631e-08
-3.05821e-07
-8.66928e-08
-2.84386e-07
-8.62191e-08
-2.6314e-07
-8.54255e-08
-2.42163e-07
-8.42963e-08
-2.21539e-07
-8.28169e-08
-2.0135e-07
-8.09743e-08
-1.81687e-07
-7.87574e-08
-1.62636e-07
-7.61573e-08
-1.44287e-07
-7.3168e-08
-1.26731e-07
-6.97869e-08
-1.10054e-07
-6.60157e-08
-9.43435e-08
-6.18613e-08
-7.96801e-08
-5.7337e-08
-6.61402e-08
-5.24643e-08
-5.37922e-08
-4.72743e-08
-4.26944e-08
-4.18108e-08
-3.28925e-08
-3.61331e-08
-2.44169e-08
-3.03202e-08
-1.72788e-08
-2.44756e-08
-1.14676e-08
-1.87339e-08
-6.94713e-09
-1.32687e-08
-3.65252e-09
-8.30215e-09
-1.48784e-09
-4.11518e-09
-3.24339e-10
-1.06003e-09
3.93e-10
-4.29747e-10
1.95084e-12
-1.8353e-09
2.13529e-09
-4.32127e-09
5.81587e-09
-7.97276e-09
1.06021e-08
-1.28528e-08
1.61548e-08
-1.9002e-08
2.21985e-08
-2.64394e-08
2.85112e-08
-3.51644e-08
3.49167e-08
-4.51585e-08
4.12764e-08
-5.63881e-08
4.74824e-08
-6.88069e-08
5.34519e-08
-8.23576e-08
5.91225e-08
-9.69749e-08
6.44484e-08
-1.12587e-07
6.9397e-08
-1.29117e-07
7.39469e-08
-1.46485e-07
7.80854e-08
-1.6461e-07
8.1807e-08
-1.83409e-07
8.51119e-08
-2.028e-07
8.8005e-08
-2.22702e-07
9.0495e-08
-2.43037e-07
9.25934e-08
-2.63726e-07
9.43142e-08
-2.84696e-07
9.56731e-08
-3.05876e-07
9.66871e-08
-3.27197e-07
9.73745e-08
-3.48596e-07
9.77539e-08
-3.70012e-07
9.78444e-08
-3.91388e-07
9.76656e-08
-4.12671e-07
9.72367e-08
-4.33813e-07
9.6577e-08
-4.54768e-07
9.57052e-08
-4.75494e-07
9.464e-08
-4.95954e-07
9.33992e-08
-5.16114e-07
9.20002e-08
-5.35943e-07
9.04597e-08
-5.55414e-07
8.87938e-08
-5.74502e-07
8.70177e-08
-5.93187e-07
8.51459e-08
-6.1145e-07
8.3192e-08
-6.29276e-07
8.11691e-08
-6.46653e-07
7.90892e-08
-6.63569e-07
7.69635e-08
-6.80017e-07
7.48025e-08
-6.95991e-07
7.26159e-08
-7.11486e-07
7.04127e-08
-7.26499e-07
6.82009e-08
-7.41031e-07
6.5988e-08
-7.55082e-07