/*--------------------------------*- C++ -*----------------------------------*\
  =========                 |
  \\      /  F ield         | OpenFOAM: The Open Source CFD Toolbox
   \\    /   O peration     | Website:  https://openfoam.org
    \\  /    A nd           | Version:  7
     \\/     M anipulation  |
\*---------------------------------------------------------------------------*/
FoamFile
{
    version     2.0;
    format      ascii;
    class       volVectorField;
    location    "0.4375";
    object      U;
}
// * * * * * * * * * * * * * * * * * * * * * * * * * * * * * * * * * * * * * //

dimensions      [0 1 -1 0 0 0 0];

internalField   nonuniform List<vector> 
12800
(
(8.33622e-06 -8.31328e-06 0)
(3.71078e-05 -1.85312e-05 0)
(7.85558e-05 -1.9712e-05 0)
(0.000113273 -1.53559e-05 0)
(0.000130022 -8.31357e-06 0)
(0.000123912 -1.40326e-07 0)
(9.27988e-05 8.34298e-06 0)
(3.60672e-05 1.66961e-05 0)
(-4.59255e-05 2.46862e-05 0)
(-0.000152232 3.21936e-05 0)
(-0.000281553 3.91588e-05 0)
(-0.000432381 4.55567e-05 0)
(-0.000603096 5.1382e-05 0)
(-0.000792018 5.66414e-05 0)
(-0.000997457 6.13487e-05 0)
(-0.00121774 6.55226e-05 0)
(-0.00145121 6.9185e-05 0)
(-0.00169629 7.23593e-05 0)
(-0.00195144 7.50702e-05 0)
(-0.00221519 7.73432e-05 0)
(-0.00248614 7.92038e-05 0)
(-0.00276297 8.06774e-05 0)
(-0.00304441 8.17895e-05 0)
(-0.00332931 8.25648e-05 0)
(-0.00361657 8.30279e-05 0)
(-0.00390515 8.32024e-05 0)
(-0.00419411 8.31113e-05 0)
(-0.00448258 8.2777e-05 0)
(-0.00476976 8.2221e-05 0)
(-0.0050549 8.14637e-05 0)
(-0.00533735 8.05248e-05 0)
(-0.00561649 7.94233e-05 0)
(-0.00589178 7.81769e-05 0)
(-0.00616274 7.68025e-05 0)
(-0.00642894 7.53161e-05 0)
(-0.00669 7.37327e-05 0)
(-0.00694559 7.20665e-05 0)
(-0.00719544 7.03307e-05 0)
(-0.00743931 6.85376e-05 0)
(-0.00767701 6.66985e-05 0)
(-0.00790837 6.4824e-05 0)
(-0.00813328 6.29238e-05 0)
(-0.00835165 6.1007e-05 0)
(-0.00856341 5.90815e-05 0)
(-0.00876854 5.71548e-05 0)
(-0.00896703 5.52335e-05 0)
(-0.00915889 5.33237e-05 0)
(-0.00934416 5.14307e-05 0)
(-0.00952289 4.95591e-05 0)
(-0.00969516 4.7713e-05 0)
(-0.00986104 4.58961e-05 0)
(-0.0100206 4.41112e-05 0)
(-0.010174 4.2361e-05 0)
(-0.0103214 4.06475e-05 0)
(-0.0104628 3.89722e-05 0)
(-0.0105983 3.73364e-05 0)
(-0.0107282 3.57407e-05 0)
(-0.0108525 3.41858e-05 0)
(-0.0109714 3.26715e-05 0)
(-0.011085 3.11977e-05 0)
(-0.0111935 2.97639e-05 0)
(-0.0112969 2.83693e-05 0)
(-0.0113954 2.70127e-05 0)
(-0.0114891 2.56928e-05 0)
(-0.0115782 2.44083e-05 0)
(-0.0116628 2.31573e-05 0)
(-0.0117429 2.19379e-05 0)
(-0.0118187 2.0748e-05 0)
(-0.0118903 1.95853e-05 0)
(-0.0119577 1.84475e-05 0)
(-0.0120211 1.7332e-05 0)
(-0.0120805 1.62361e-05 0)
(-0.0121359 1.51569e-05 0)
(-0.0121875 1.40917e-05 0)
(-0.0122352 1.30374e-05 0)
(-0.0122791 1.19909e-05 0)
(-0.0123192 1.09491e-05 0)
(-0.0123556 9.90862e-06 0)
(-0.0123881 8.86624e-06 0)
(-0.0124169 7.81852e-06 0)
(-0.0124419 6.76204e-06 0)
(-0.0124629 5.69333e-06 0)
(-0.0124801 4.60897e-06 0)
(-0.0124933 3.50545e-06 0)
(-0.0125025 2.37926e-06 0)
(-0.0125076 1.22686e-06 0)
(-0.0125084 4.47301e-08 0)
(-0.0125049 -1.17061e-06 0)
(-0.012497 -2.42259e-06 0)
(-0.0124844 -3.71456e-06 0)
(-0.0124672 -5.04981e-06 0)
(-0.0124451 -6.43157e-06 0)
(-0.012418 -7.86293e-06 0)
(-0.0123856 -9.34687e-06 0)
(-0.0123479 -1.08862e-05 0)
(-0.0123045 -1.24836e-05 0)
(-0.0122554 -1.41415e-05 0)
(-0.0122003 -1.58621e-05 0)
(-0.012139 -1.76473e-05 0)
(-0.0120713 -1.94989e-05 0)
(-0.0119969 -2.14182e-05 0)
(-0.0119156 -2.34061e-05 0)
(-0.0118272 -2.54633e-05 0)
(-0.0117315 -2.75899e-05 0)
(-0.0116283 -2.97856e-05 0)
(-0.0115172 -3.20497e-05 0)
(-0.0113981 -3.43808e-05 0)
(-0.0112708 -3.67769e-05 0)
(-0.011135 -3.92354e-05 0)
(-0.0109907 -4.17532e-05 0)
(-0.0108375 -4.43261e-05 0)
(-0.0106753 -4.69495e-05 0)
(-0.010504 -4.96179e-05 0)
(-0.0103234 -5.23248e-05 0)
(-0.0101335 -5.50631e-05 0)
(-0.00993417 -5.78244e-05 0)
(-0.00972533 -6.05998e-05 0)
(-0.00950701 -6.3379e-05 0)
(-0.00927921 -6.6151e-05 0)
(-0.00904201 -6.89037e-05 0)
(-0.00879552 -7.16238e-05 0)
(-0.00853989 -7.42972e-05 0)
(-0.00827532 -7.69086e-05 0)
(-0.00800208 -7.94417e-05 0)
(-0.00772049 -8.18791e-05 0)
(-0.00743091 -8.42025e-05 0)
(-0.0071338 -8.63926e-05 0)
(-0.00682967 -8.84291e-05 0)
(-0.00651908 -9.02908e-05 0)
(-0.00620268 -9.19557e-05 0)
(-0.00588122 -9.34009e-05 0)
(-0.00555547 -9.46029e-05 0)
(-0.00522633 -9.55375e-05 0)
(-0.00489476 -9.618e-05 0)
(-0.00456179 -9.65051e-05 0)
(-0.00422856 -9.64874e-05 0)
(-0.00389626 -9.61009e-05 0)
(-0.00356619 -9.53195e-05 0)
(-0.00323973 -9.41173e-05 0)
(-0.00291831 -9.24682e-05 0)
(-0.00260347 -9.03465e-05 0)
(-0.00229682 -8.77267e-05 0)
(-0.00200003 -8.4584e-05 0)
(-0.00171485 -8.08941e-05 0)
(-0.00144308 -7.66341e-05 0)
(-0.00118657 -7.17825e-05 0)
(-0.000947224 -6.63198e-05 0)
(-0.000726953 -6.02299e-05 0)
(-0.000527679 -5.35014e-05 0)
(-0.000351298 -4.61303e-05 0)
(-0.000199633 -3.81247e-05 0)
(-7.43746e-05 -2.95128e-05 0)
(2.3019e-05 -2.03586e-05 0)
(9.14741e-05 -1.07908e-05 0)
(0.000130561 -1.05967e-06 0)
(0.000140914 8.35547e-06 0)
(0.000124848 1.65509e-05 0)
(8.77275e-05 2.17939e-05 0)
(4.2048e-05 2.08634e-05 0)
(9.63446e-06 9.63285e-06 0)
(1.85625e-05 -3.7076e-05 0)
(7.03806e-05 -7.02953e-05 0)
(0.000132093 -6.77634e-05 0)
(0.000170208 -4.20975e-05 0)
(0.000163441 -3.16076e-06 0)
(0.000100357 4.2712e-05 0)
(-2.53106e-05 9.15519e-05 0)
(-0.000216301 0.000140877 0)
(-0.000472825 0.00018914 0)
(-0.000793379 0.00023538 0)
(-0.00117532 0.000279006 0)
(-0.00161525 0.000319662 0)
(-0.00210931 0.000357152 0)
(-0.00265333 0.000391386 0)
(-0.00324301 0.000422348 0)
(-0.003874 0.000450072 0)
(-0.00454196 0.00047463 0)
(-0.00524262 0.000496118 0)
(-0.00597183 0.000514654 0)
(-0.00672561 0.000530365 0)
(-0.00750009 0.00054339 0)
(-0.00829161 0.000553872 0)
(-0.0090967 0.000561959 0)
(-0.00991207 0.000567797 0)
(-0.0107346 0.000571536 0)
(-0.0115615 0.000573323 0)
(-0.01239 0.000573301 0)
(-0.0132177 0.000571614 0)
(-0.0140421 0.000568397 0)
(-0.0148613 0.000563785 0)
(-0.0156733 0.000557907 0)
(-0.0164764 0.000550886 0)
(-0.017269 0.00054284 0)
(-0.0180496 0.000533883 0)
(-0.018817 0.000524121 0)
(-0.0195701 0.000513656 0)
(-0.0203079 0.000502583 0)
(-0.0210297 0.000490994 0)
(-0.0217346 0.000478971 0)
(-0.0224221 0.000466593 0)
(-0.0230917 0.000453933 0)
(-0.0237431 0.000441059 0)
(-0.0243758 0.000428033 0)
(-0.0249898 0.000414911 0)
(-0.0255849 0.000401746 0)
(-0.0261611 0.000388585 0)
(-0.0267183 0.00037547 0)
(-0.0272567 0.000362439 0)
(-0.0277763 0.000349527 0)
(-0.0282774 0.000336762 0)
(-0.0287601 0.000324171 0)
(-0.0292247 0.000311776 0)
(-0.0296715 0.000299596 0)
(-0.0301008 0.000287645 0)
(-0.0305129 0.000275938 0)
(-0.0309082 0.000264482 0)
(-0.0312869 0.000253285 0)
(-0.0316495 0.00024235 0)
(-0.0319964 0.00023168 0)
(-0.0323279 0.000221274 0)
(-0.0326443 0.000211129 0)
(-0.0329461 0.000201242 0)
(-0.0332337 0.000191604 0)
(-0.0335072 0.000182209 0)
(-0.0337671 0.000173046 0)
(-0.0340138 0.000164105 0)
(-0.0342474 0.000155374 0)
(-0.0344684 0.000146837 0)
(-0.0346769 0.00013848 0)
(-0.0348732 0.000130288 0)
(-0.0350575 0.000122243 0)
(-0.0352301 0.000114328 0)
(-0.035391 0.000106523 0)
(-0.0355405 9.88092e-05 0)
(-0.0356786 9.11662e-05 0)
(-0.0358055 8.35732e-05 0)
(-0.0359211 7.60087e-05 0)
(-0.0360256 6.8451e-05 0)
(-0.0361188 6.08776e-05 0)
(-0.0362008 5.32656e-05 0)
(-0.0362715 4.55921e-05 0)
(-0.0363308 3.78337e-05 0)
(-0.0363785 2.99671e-05 0)
(-0.0364145 2.19686e-05 0)
(-0.0364385 1.38148e-05 0)
(-0.0364504 5.48223e-06 0)
(-0.0364498 -3.05265e-06 0)
(-0.0364364 -1.18129e-05 0)
(-0.03641 -2.08214e-05 0)
(-0.0363701 -3.01002e-05 0)
(-0.0363163 -3.96713e-05 0)
(-0.0362482 -4.95555e-05 0)
(-0.0361653 -5.97732e-05 0)
(-0.0360672 -7.03435e-05 0)
(-0.0359534 -8.12847e-05 0)
(-0.0358232 -9.26134e-05 0)
(-0.0356761 -0.000104345 0)
(-0.0355117 -0.000116494 0)
(-0.0353291 -0.000129071 0)
(-0.0351279 -0.000142086 0)
(-0.0349075 -0.000155547 0)
(-0.0346671 -0.00016946 0)
(-0.0344062 -0.000183825 0)
(-0.034124 -0.000198643 0)
(-0.0338201 -0.000213909 0)
(-0.0334937 -0.000229617 0)
(-0.0331443 -0.000245755 0)
(-0.0327713 -0.000262307 0)
(-0.032374 -0.000279254 0)
(-0.0319521 -0.000296572 0)
(-0.0315049 -0.000314232 0)
(-0.0310321 -0.000332199 0)
(-0.0305333 -0.000350435 0)
(-0.030008 -0.000368893 0)
(-0.0294562 -0.000387523 0)
(-0.0288776 -0.000406267 0)
(-0.0282721 -0.000425062 0)
(-0.0276397 -0.000443839 0)
(-0.0269806 -0.00046252 0)
(-0.0262949 -0.000481023 0)
(-0.0255831 -0.000499257 0)
(-0.0248456 -0.000517127 0)
(-0.0240829 -0.000534528 0)
(-0.0232961 -0.000551352 0)
(-0.0224858 -0.00056748 0)
(-0.0216533 -0.00058279 0)
(-0.0207999 -0.000597154 0)
(-0.019927 -0.000610437 0)
(-0.0190364 -0.000622498 0)
(-0.0181298 -0.000633193 0)
(-0.0172094 -0.000642371 0)
(-0.0162774 -0.000649879 0)
(-0.0153364 -0.000655561 0)
(-0.0143891 -0.000659257 0)
(-0.0134384 -0.000660806 0)
(-0.0124876 -0.000660046 0)
(-0.0115399 -0.000656816 0)
(-0.0105991 -0.000650954 0)
(-0.00966902 -0.000642303 0)
(-0.00875362 -0.000630709 0)
(-0.00785716 -0.000616021 0)
(-0.00698408 -0.000598099 0)
(-0.00613898 -0.00057681 0)
(-0.00532661 -0.000552035 0)
(-0.00455184 -0.000523671 0)
(-0.00381965 -0.000491638 0)
(-0.00313503 -0.000455883 0)
(-0.00250298 -0.000416395 0)
(-0.00192843 -0.000373216 0)
(-0.00141607 -0.000326467 0)
(-0.000970278 -0.00027638 0)
(-0.000594873 -0.000223356 0)
(-0.000292836 -0.000168049 0)
(-6.58844e-05 -0.000111514 0)
(8.61568e-05 -5.54461e-05 0)
(0.000166259 -2.57934e-06 0)
(0.000181309 4.26833e-05 0)
(0.000143976 7.3251e-05 0)
(7.79826e-05 7.79492e-05 0)
(2.08639e-05 4.20339e-05 0)
(1.98114e-05 -7.86312e-05 0)
(6.81297e-05 -0.000132105 0)
(0.000111242 -0.000110689 0)
(0.000110447 -3.9477e-05 0)
(4.04813e-05 6.29506e-05 0)
(-0.000113516 0.000183372 0)
(-0.000360441 0.000312642 0)
(-0.000704696 0.000444549 0)
(-0.00114723 0.000574914 0)
(-0.00168647 0.000700943 0)
(-0.00231909 0.000820787 0)
(-0.0030405 0.00093325 0)
(-0.00384527 0.00103759 0)
(-0.00472742 0.0011334 0)
(-0.00568062 0.00122048 0)
(-0.00669841 0.00129882 0)
(-0.00777425 0.00136852 0)
(-0.00890167 0.00142979 0)
(-0.0100743 0.00148288 0)
(-0.011286 0.0015281 0)
(-0.0125308 0.00156579 0)
(-0.013803 0.00159633 0)
(-0.0150971 0.00162011 0)
(-0.016408 0.00163751 0)
(-0.0177308 0.00164893 0)
(-0.0190609 0.00165479 0)
(-0.0203941 0.00165546 0)
(-0.0217264 0.00165135 0)
(-0.0230541 0.00164284 0)
(-0.0243739 0.0016303 0)
(-0.0256827 0.00161408 0)
(-0.0269776 0.00159455 0)
(-0.0282561 0.00157203 0)
(-0.0295159 0.00154685 0)
(-0.0307549 0.0015193 0)
(-0.0319714 0.00148968 0)
(-0.0331638 0.00145827 0)
(-0.0343307 0.00142531 0)
(-0.0354708 0.00139105 0)
(-0.0365833 0.00135573 0)
(-0.0376673 0.00131953 0)
(-0.0387221 0.00128267 0)
(-0.0397473 0.00124533 0)
(-0.0407424 0.00120766 0)
(-0.0417073 0.00116982 0)
(-0.0426419 0.00113194 0)
(-0.043546 0.00109416 0)
(-0.0444199 0.00105658 0)
(-0.0452637 0.0010193 0)
(-0.0460775 0.000982405 0)
(-0.0468618 0.000945978 0)
(-0.047617 0.000910083 0)
(-0.0483433 0.000874774 0)
(-0.0490414 0.000840099 0)
(-0.0497116 0.000806096 0)
(-0.0503546 0.000772792 0)
(-0.0509708 0.000740209 0)
(-0.0515609 0.000708361 0)
(-0.0521255 0.000677254 0)
(-0.052665 0.000646888 0)
(-0.0531801 0.000617257 0)
(-0.0536713 0.000588349 0)
(-0.0541393 0.000560148 0)
(-0.0545845 0.00053263 0)
(-0.0550075 0.00050577 0)
(-0.0554088 0.000479535 0)
(-0.0557888 0.000453892 0)
(-0.0561481 0.0004288 0)
(-0.056487 0.000404219 0)
(-0.0568059 0.000380102 0)
(-0.0571052 0.000356402 0)
(-0.0573851 0.000333066 0)
(-0.057646 0.000310043 0)
(-0.057888 0.000287276 0)
(-0.0581114 0.000264708 0)
(-0.0583163 0.000242279 0)
(-0.0585027 0.000219928 0)
(-0.0586707 0.000197592 0)
(-0.0588202 0.000175208 0)
(-0.0589513 0.000152711 0)
(-0.0590638 0.000130034 0)
(-0.0591574 0.000107112 0)
(-0.0592321 8.38782e-05 0)
(-0.0592875 6.02645e-05 0)
(-0.0593233 3.62044e-05 0)
(-0.059339 1.1631e-05 0)
(-0.0593344 -1.35218e-05 0)
(-0.0593088 -3.93198e-05 0)
(-0.0592617 -6.58273e-05 0)
(-0.0591926 -9.31073e-05 0)
(-0.0591008 -0.000121221 0)
(-0.0589856 -0.000150228 0)
(-0.0588464 -0.000180185 0)
(-0.0586822 -0.000211146 0)
(-0.0584924 -0.00024316 0)
(-0.058276 -0.000276276 0)
(-0.0580322 -0.000310534 0)
(-0.05776 -0.000345973 0)
(-0.0574585 -0.000382625 0)
(-0.0571268 -0.000420515 0)
(-0.0567639 -0.000459663 0)
(-0.0563687 -0.000500082 0)
(-0.0559403 -0.000541774 0)
(-0.0554777 -0.000584737 0)
(-0.0549799 -0.000628956 0)
(-0.0544459 -0.000674406 0)
(-0.0538748 -0.000721054 0)
(-0.0532657 -0.000768852 0)
(-0.0526177 -0.000817742 0)
(-0.0519301 -0.000867651 0)
(-0.051202 -0.000918495 0)
(-0.0504328 -0.000970171 0)
(-0.0496219 -0.00102256 0)
(-0.0487688 -0.00107554 0)
(-0.0478733 -0.00112896 0)
(-0.046935 -0.00118265 0)
(-0.0459538 -0.00123642 0)
(-0.0449298 -0.00129008 0)
(-0.0438632 -0.00134341 0)
(-0.0427545 -0.00139616 0)
(-0.0416042 -0.00144808 0)
(-0.0404132 -0.00149889 0)
(-0.0391825 -0.0015483 0)
(-0.0379134 -0.001596 0)
(-0.0366074 -0.00164164 0)
(-0.0352664 -0.00168489 0)
(-0.0338924 -0.00172537 0)
(-0.0324879 -0.00176271 0)
(-0.0310556 -0.00179651 0)
(-0.0295984 -0.00182636 0)
(-0.0281196 -0.00185183 0)
(-0.0266231 -0.00187251 0)
(-0.0251127 -0.00188795 0)
(-0.0235928 -0.0018977 0)
(-0.0220681 -0.00190133 0)
(-0.0205437 -0.00189837 0)
(-0.0190248 -0.0018884 0)
(-0.0175172 -0.00187098 0)
(-0.016027 -0.00184567 0)
(-0.0145604 -0.00181206 0)
(-0.0131241 -0.00176977 0)
(-0.011725 -0.00171844 0)
(-0.0103702 -0.00165773 0)
(-0.00906701 -0.00158737 0)
(-0.00782289 -0.00150714 0)
(-0.00664541 -0.00141688 0)
(-0.00554212 -0.00131657 0)
(-0.00452046 -0.00120628 0)
(-0.00358766 -0.00108629 0)
(-0.00275051 -0.000957114 0)
(-0.00201516 -0.000819622 0)
(-0.00138678 -0.000675164 0)
(-0.000869137 -0.000525798 0)
(-0.000464029 -0.000374614 0)
(-0.000170456 -0.000226225 0)
(1.64145e-05 -8.7506e-05 0)
(0.000106426 3.13618e-05 0)
(0.000116101 0.000115553 0)
(7.35513e-05 0.000144014 0)
(2.18487e-05 8.77573e-05 0)
(1.55838e-05 -0.000113678 0)
(4.29374e-05 -0.000170693 0)
(4.092e-05 -0.000110101 0)
(-2.80888e-05 2.97039e-05 0)
(-0.00018979 0.000221181 0)
(-0.000460375 0.00044389 0)
(-0.000849917 0.000682963 0)
(-0.00136365 0.000927805 0)
(-0.00200294 0.00117095 0)
(-0.00276621 0.00140716 0)
(-0.00364966 0.00163283 0)
(-0.00464789 0.00184553 0)
(-0.00575434 0.00204366 0)
(-0.00696165 0.00222624 0)
(-0.00826196 0.00239276 0)
(-0.00964709 0.00254304 0)
(-0.0111087 0.00267717 0)
(-0.0126386 0.00279541 0)
(-0.0142285 0.00289818 0)
(-0.0158703 0.002986 0)
(-0.0175564 0.00305947 0)
(-0.0192792 0.00311924 0)
(-0.0210315 0.00316602 0)
(-0.0228066 0.00320052 0)
(-0.024598 0.0032235 0)
(-0.0263995 0.00323569 0)
(-0.0282056 0.00323785 0)
(-0.0300109 0.0032307 0)
(-0.0318104 0.00321498 0)
(-0.0335997 0.00319139 0)
(-0.0353746 0.00316063 0)
(-0.0371312 0.00312337 0)
(-0.0388662 0.00308023 0)
(-0.0405763 0.00303186 0)
(-0.0422589 0.00297882 0)
(-0.0439114 0.00292168 0)
(-0.0455317 0.00286097 0)
(-0.0471179 0.0027972 0)
(-0.0486683 0.00273082 0)
(-0.0501815 0.00266228 0)
(-0.0516565 0.00259199 0)
(-0.0530923 0.00252034 0)
(-0.0544882 0.00244767 0)
(-0.0558437 0.00237431 0)
(-0.0571584 0.00230055 0)
(-0.0584321 0.00222666 0)
(-0.0596648 0.0021529 0)
(-0.0608565 0.00207947 0)
(-0.0620074 0.00200658 0)
(-0.0631179 0.0019344 0)
(-0.0641883 0.00186308 0)
(-0.0652191 0.00179275 0)
(-0.0662108 0.00172352 0)
(-0.0671641 0.00165549 0)
(-0.0680796 0.00158873 0)
(-0.068958 0.0015233 0)
(-0.0698 0.00145925 0)
(-0.0706064 0.0013966 0)
(-0.0713778 0.00133537 0)
(-0.0721152 0.00127555 0)
(-0.0728191 0.00121715 0)
(-0.0734905 0.00116013 0)
(-0.07413 0.00110447 0)
(-0.0747383 0.00105013 0)
(-0.0753162 0.000997046 0)
(-0.0758644 0.00094517 0)
(-0.0763834 0.000894431 0)
(-0.0768738 0.000844756 0)
(-0.0773363 0.000796062 0)
(-0.0777713 0.000748264 0)
(-0.0781792 0.000701266 0)
(-0.0785606 0.000654971 0)
(-0.0789157 0.000609276 0)
(-0.0792448 0.000564073 0)
(-0.0795482 0.000519251 0)
(-0.0798261 0.000474693 0)
(-0.0800785 0.000430282 0)
(-0.0803056 0.000385896 0)
(-0.0805072 0.000341411 0)
(-0.0806832 0.000296703 0)
(-0.0808336 0.000251643 0)
(-0.0809581 0.000206104 0)
(-0.0810564 0.000159955 0)
(-0.0811281 0.000113067 0)
(-0.0811728 6.53102e-05 0)
(-0.08119 1.65559e-05 0)
(-0.081179 -3.33241e-05 0)
(-0.0811392 -8.4456e-05 0)
(-0.0810699 -0.000136964 0)
(-0.0809704 -0.000190969 0)
(-0.0808397 -0.00024659 0)
(-0.0806769 -0.000303939 0)
(-0.0804811 -0.000363125 0)
(-0.0802513 -0.000424251 0)
(-0.0799863 -0.000487413 0)
(-0.079685 -0.000552699 0)
(-0.0793463 -0.00062019 0)
(-0.0789689 -0.000689955 0)
(-0.0785515 -0.000762055 0)
(-0.078093 -0.000836537 0)
(-0.0775919 -0.000913435 0)
(-0.0770471 -0.000992771 0)
(-0.0764571 -0.00107455 0)
(-0.0758207 -0.00115876 0)
(-0.0751365 -0.00124536 0)
(-0.0744033 -0.00133432 0)
(-0.0736199 -0.00142556 0)
(-0.0727851 -0.00151898 0)
(-0.0718977 -0.00161446 0)
(-0.0709568 -0.00171187 0)
(-0.0699612 -0.00181103 0)
(-0.0689103 -0.00191175 0)
(-0.0678033 -0.00201379 0)
(-0.0666394 -0.00211689 0)
(-0.0654185 -0.00222077 0)
(-0.06414 -0.0023251 0)
(-0.062804 -0.00242952 0)
(-0.0614106 -0.00253364 0)
(-0.0599602 -0.00263703 0)
(-0.0584532 -0.00273922 0)
(-0.0568907 -0.00283972 0)
(-0.0552738 -0.00293798 0)
(-0.0536038 -0.00303344 0)
(-0.0518827 -0.00312549 0)
(-0.0501124 -0.00321348 0)
(-0.0482956 -0.00329675 0)
(-0.0464349 -0.00337458 0)
(-0.0445338 -0.00344625 0)
(-0.0425957 -0.00351099 0)
(-0.0406248 -0.00356802 0)
(-0.0386256 -0.00361653 0)
(-0.036603 -0.00365571 0)
(-0.0345623 -0.00368471 0)
(-0.0325094 -0.00370269 0)
(-0.0304505 -0.00370881 0)
(-0.0283923 -0.00370223 0)
(-0.0263419 -0.00368211 0)
(-0.024307 -0.00364763 0)
(-0.0222954 -0.00359802 0)
(-0.0203155 -0.00353251 0)
(-0.018376 -0.0034504 0)
(-0.016486 -0.00335105 0)
(-0.0146547 -0.0032339 0)
(-0.0128917 -0.00309849 0)
(-0.0112065 -0.00294448 0)
(-0.0096089 -0.0027717 0)
(-0.00810851 -0.00258021 0)
(-0.00671472 -0.00237034 0)
(-0.00543654 -0.00214277 0)
(-0.00428235 -0.0018987 0)
(-0.00325958 -0.00163998 0)
(-0.00237434 -0.00136938 0)
(-0.0016309 -0.00109093 0)
(-0.00103107 -0.000810433 0)
(-0.000573376 -0.000536165 0)
(-0.000252025 -0.000279879 0)
(-5.58396e-05 -5.81401e-05 0)
(3.32006e-05 0.00010615 0)
(4.3572e-05 0.000181882 0)
(1.67371e-05 0.00012515 0)
(8.69802e-06 -0.00013106 0)
(4.50065e-06 -0.000164841 0)
(-6.07283e-05 -4.07274e-05 0)
(-0.00021871 0.000191237 0)
(-0.000492947 0.0004952 0)
(-0.000899426 0.000843912 0)
(-0.00144821 0.00121691 0)
(-0.00214455 0.00159913 0)
(-0.00298978 0.00197955 0)
(-0.0039821 0.00235024 0)
(-0.00511729 0.00270551 0)
(-0.00638927 0.00304141 0)
(-0.0077906 0.00335522 0)
(-0.00931284 0.00364524 0)
(-0.0109469 0.00391045 0)
(-0.0126832 0.00415041 0)
(-0.014512 0.0043651 0)
(-0.0164235 0.00455481 0)
(-0.0184079 0.00472009 0)
(-0.0204556 0.00486167 0)
(-0.0225574 0.00498043 0)
(-0.0247041 0.00507734 0)
(-0.0268871 0.00515348 0)
(-0.0290981 0.00520995 0)
(-0.0313293 0.00524789 0)
(-0.0335733 0.00526847 0)
(-0.035823 0.00527286 0)
(-0.038072 0.00526221 0)
(-0.0403142 0.00523769 0)
(-0.042544 0.00520041 0)
(-0.0447563 0.00515147 0)
(-0.0469464 0.00509194 0)
(-0.0491099 0.00502285 0)
(-0.051243 0.00494518 0)
(-0.0533423 0.00485989 0)
(-0.0554046 0.00476787 0)
(-0.0574272 0.00466997 0)
(-0.0594077 0.00456701 0)
(-0.0613441 0.00445975 0)
(-0.0632347 0.00434889 0)
(-0.0650779 0.00423511 0)
(-0.0668727 0.00411902 0)
(-0.068618 0.00400119 0)
(-0.0703132 0.00388216 0)
(-0.0719578 0.0037624 0)
(-0.0735516 0.00364237 0)
(-0.0750943 0.00352245 0)
(-0.0765862 0.00340301 0)
(-0.0780273 0.00328436 0)
(-0.0794181 0.0031668 0)
(-0.0807589 0.00305058 0)
(-0.0820504 0.0029359 0)
(-0.0832932 0.00282296 0)
(-0.0844879 0.00271191 0)
(-0.0856355 0.00260287 0)
(-0.0867367 0.00249595 0)
(-0.0877924 0.00239121 0)
(-0.0888034 0.00228871 0)
(-0.0897708 0.00218847 0)
(-0.0906953 0.00209051 0)
(-0.0915781 0.00199479 0)
(-0.0924199 0.00190131 0)
(-0.0932217 0.00180999 0)
(-0.0939844 0.00172079 0)
(-0.0947088 0.00163361 0)
(-0.0953957 0.00154837 0)
(-0.0960459 0.00146495 0)
(-0.0966602 0.00138324 0)
(-0.0972392 0.00130311 0)
(-0.0977835 0.00122442 0)
(-0.0982938 0.00114701 0)
(-0.0987705 0.00107072 0)
(-0.099214 0.000995404 0)
(-0.0996247 0.000920872 0)
(-0.100003 0.000846948 0)
(-0.100349 0.000773446 0)
(-0.100662 0.000700174 0)
(-0.100944 0.000626937 0)
(-0.101193 0.000553536 0)
(-0.101411 0.000479768 0)
(-0.101595 0.000405427 0)
(-0.101747 0.000330307 0)
(-0.101866 0.000254197 0)
(-0.101951 0.000176891 0)
(-0.102002 9.81781e-05 0)
(-0.102019 1.78514e-05 0)
(-0.101999 -6.42951e-05 0)
(-0.101944 -0.000148464 0)
(-0.101851 -0.000234855 0)
(-0.10172 -0.000323662 0)
(-0.10155 -0.000415075 0)
(-0.10134 -0.000509273 0)
(-0.101088 -0.000606432 0)
(-0.100794 -0.000706713 0)
(-0.100455 -0.000810271 0)
(-0.100071 -0.000917245 0)
(-0.0996396 -0.00102776 0)
(-0.09916 -0.00114193 0)
(-0.0986305 -0.00125984 0)
(-0.0980494 -0.00138158 0)
(-0.0974153 -0.00150718 0)
(-0.0967265 -0.00163669 0)
(-0.0959815 -0.0017701 0)
(-0.0951786 -0.00190739 0)
(-0.0943162 -0.0020485 0)
(-0.0933929 -0.00219336 0)
(-0.0924071 -0.00234183 0)
(-0.0913574 -0.00249377 0)
(-0.0902425 -0.00264898 0)
(-0.0890611 -0.00280722 0)
(-0.0878121 -0.00296821 0)
(-0.0864944 -0.00313163 0)
(-0.0851073 -0.0032971 0)
(-0.0836499 -0.00346419 0)
(-0.0821219 -0.00363245 0)
(-0.0805229 -0.00380132 0)
(-0.0788528 -0.00397025 0)
(-0.0771119 -0.00413858 0)
(-0.0753007 -0.00430562 0)
(-0.07342 -0.00447062 0)
(-0.0714708 -0.00463277 0)
(-0.0694546 -0.0047912 0)
(-0.0673733 -0.004945 0)
(-0.0652291 -0.00509318 0)
(-0.0630247 -0.00523471 0)
(-0.0607631 -0.00536851 0)
(-0.0584479 -0.00549345 0)
(-0.0560831 -0.00560835 0)
(-0.0536732 -0.00571199 0)
(-0.0512233 -0.00580312 0)
(-0.0487388 -0.00588045 0)
(-0.0462259 -0.00594268 0)
(-0.043691 -0.00598847 0)
(-0.0411414 -0.0060165 0)
(-0.0385847 -0.00602542 0)
(-0.0360291 -0.00601391 0)
(-0.0334832 -0.00598067 0)
(-0.0309564 -0.00592442 0)
(-0.0284581 -0.00584395 0)
(-0.0259987 -0.0057381 0)
(-0.0235884 -0.00560581 0)
(-0.0212384 -0.00544612 0)
(-0.0189596 -0.00525823 0)
(-0.0167634 -0.00504149 0)
(-0.0146614 -0.0047955 0)
(-0.0126649 -0.00452015 0)
(-0.0107854 -0.00421566 0)
(-0.0090337 -0.00388274 0)
(-0.00742037 -0.0035227 0)
(-0.005955 -0.00313763 0)
(-0.00464602 -0.00273066 0)
(-0.0035003 -0.0023063 0)
(-0.0025226 -0.00187091 0)
(-0.00171495 -0.00143335 0)
(-0.00107588 -0.00100582 0)
(-0.000599565 -0.000605063 0)
(-0.000274823 -0.000253861 0)
(-8.38746e-05 1.73155e-05 0)
(-8.45797e-07 0.000168145 0)
(8.74047e-06 0.000141892 0)
(6.68999e-07 -0.000125864 0)
(-4.10567e-05 -0.000102919 0)
(-0.000181027 0.000112709 0)
(-0.000441995 0.000461971 0)
(-0.000843365 0.000901899 0)
(-0.00139971 0.00139916 0)
(-0.00212013 0.00192814 0)
(-0.00300915 0.00246946 0)
(-0.00406757 0.00300861 0)
(-0.0052931 0.0035348 0)
(-0.00668096 0.00404015 0)
(-0.00822441 0.004519 0)
(-0.00991521 0.00496739 0)
(-0.011744 0.00538267 0)
(-0.0137007 0.00576325 0)
(-0.0157745 0.0061083 0)
(-0.0179545 0.0064176 0)
(-0.0202297 0.00669145 0)
(-0.0225889 0.00693048 0)
(-0.0250212 0.00713563 0)
(-0.0275159 0.00730806 0)
(-0.0300627 0.0074491 0)
(-0.0326516 0.00756019 0)
(-0.0352731 0.00764287 0)
(-0.037918 0.00769876 0)
(-0.0405777 0.00772947 0)
(-0.0432442 0.00773667 0)
(-0.0459099 0.007722 0)
(-0.0485677 0.00768711 0)
(-0.051211 0.00763361 0)
(-0.0538338 0.00756307 0)
(-0.0564306 0.00747703 0)
(-0.0589963 0.00737697 0)
(-0.0615264 0.00726431 0)
(-0.0640167 0.00714044 0)
(-0.0664637 0.00700665 0)
(-0.068864 0.00686418 0)
(-0.0712149 0.00671421 0)
(-0.0735138 0.00655785 0)
(-0.0757588 0.00639614 0)
(-0.0779481 0.00623004 0)
(-0.0800802 0.00606047 0)
(-0.082154 0.00588826 0)
(-0.0841686 0.00571418 0)
(-0.0861236 0.00553895 0)
(-0.0880184 0.00536321 0)
(-0.0898529 0.00518754 0)
(-0.0916272 0.00501249 0)
(-0.0933416 0.00483852 0)
(-0.0949962 0.00466605 0)
(-0.0965918 0.00449545 0)
(-0.0981288 0.00432704 0)
(-0.099608 0.0041611 0)
(-0.10103 0.00399786 0)
(-0.102396 0.0038375 0)
(-0.103708 0.00368017 0)
(-0.104965 0.00352599 0)
(-0.106169 0.00337503 0)
(-0.10732 0.00322733 0)
(-0.108421 0.0030829 0)
(-0.109473 0.00294173 0)
(-0.110475 0.00280377 0)
(-0.11143 0.00266896 0)
(-0.112337 0.0025372 0)
(-0.1132 0.00240837 0)
(-0.114017 0.00228234 0)
(-0.114791 0.00215896 0)
(-0.115521 0.00203805 0)
(-0.11621 0.00191942 0)
(-0.116856 0.00180288 0)
(-0.117462 0.00168819 0)
(-0.118028 0.00157514 0)
(-0.118554 0.00146349 0)
(-0.119041 0.00135297 0)
(-0.119488 0.00124332 0)
(-0.119897 0.00113429 0)
(-0.120268 0.00102558 0)
(-0.120599 0.000916921 0)
(-0.120892 0.000808013 0)
(-0.121147 0.000698565 0)
(-0.121362 0.000588278 0)
(-0.121539 0.000476851 0)
(-0.121675 0.000363981 0)
(-0.121771 0.000249364 0)
(-0.121826 0.000132698 0)
(-0.12184 1.36814e-05 0)
(-0.121811 -0.000107984 0)
(-0.121739 -0.000232593 0)
(-0.121622 -0.000360433 0)
(-0.121459 -0.000491786 0)
(-0.12125 -0.000626924 0)
(-0.120993 -0.000766108 0)
(-0.120686 -0.000909588 0)
(-0.120328 -0.0010576 0)
(-0.119917 -0.00121036 0)
(-0.119453 -0.00136807 0)
(-0.118932 -0.00153092 0)
(-0.118354 -0.00169905 0)
(-0.117717 -0.0018726 0)
(-0.117018 -0.00205167 0)
(-0.116257 -0.00223633 0)
(-0.11543 -0.00242662 0)
(-0.114537 -0.00262254 0)
(-0.113576 -0.00282405 0)
(-0.112544 -0.00303106 0)
(-0.11144 -0.00324344 0)
(-0.110262 -0.00346102 0)
(-0.109009 -0.00368356 0)
(-0.107679 -0.00391077 0)
(-0.10627 -0.0041423 0)
(-0.104782 -0.00437773 0)
(-0.103213 -0.00461659 0)
(-0.101562 -0.00485832 0)
(-0.0998284 -0.00510231 0)
(-0.0980117 -0.00534787 0)
(-0.0961116 -0.00559421 0)
(-0.0941281 -0.00584049 0)
(-0.0920614 -0.00608577 0)
(-0.0899121 -0.00632905 0)
(-0.0876813 -0.00656923 0)
(-0.0853703 -0.00680514 0)
(-0.0829808 -0.0070355 0)
(-0.0805151 -0.00725899 0)
(-0.0779758 -0.00747418 0)
(-0.075366 -0.00767958 0)
(-0.0726893 -0.00787362 0)
(-0.0699501 -0.00805466 0)
(-0.0671529 -0.00822101 0)
(-0.064303 -0.00837091 0)
(-0.0614065 -0.00850255 0)
(-0.0584696 -0.00861407 0)
(-0.0554996 -0.00870361 0)
(-0.052504 -0.00876927 0)
(-0.0494912 -0.00880912 0)
(-0.0464701 -0.00882127 0)
(-0.0434502 -0.00880383 0)
(-0.0404416 -0.00875497 0)
(-0.0374548 -0.00867288 0)
(-0.0345011 -0.00855588 0)
(-0.0315921 -0.00840235 0)
(-0.02874 -0.00821085 0)
(-0.025957 -0.0079801 0)
(-0.0232561 -0.00770903 0)
(-0.02065 -0.00739686 0)
(-0.018152 -0.00704315 0)
(-0.0157748 -0.00664789 0)
(-0.0135313 -0.0062116 0)
(-0.0114337 -0.0057355 0)
(-0.00949374 -0.00522165 0)
(-0.00772203 -0.00467322 0)
(-0.00612792 -0.00409483 0)
(-0.00471903 -0.00349293 0)
(-0.00350073 -0.00287638 0)
(-0.00247557 -0.00225721 0)
(-0.00164266 -0.00165156 0)
(-0.000996963 -0.00108093 0)
(-0.000528363 -0.000573809 0)
(-0.00022068 -0.000167369 0)
(-5.2752e-05 9.02955e-05 0)
(-4.33583e-07 0.000132734 0)
(-7.72295e-06 -9.58012e-05 0)
(-8.99879e-05 2.18147e-05 0)
(-0.000311408 0.000359941 0)
(-0.000684142 0.000853184 0)
(-0.00122226 0.00145292 0)
(-0.00193801 0.00212069 0)
(-0.00283875 0.00282632 0)
(-0.00392765 0.00354652 0)
(-0.0052045 0.00426344 0)
(-0.0066662 0.00496354 0)
(-0.00830722 0.00563671 0)
(-0.0101201 0.00627552 0)
(-0.0120957 0.00687466 0)
(-0.014224 0.0074305 0)
(-0.0164937 0.00794071 0)
(-0.0188934 0.00840403 0)
(-0.0214108 0.00882 0)
(-0.0240339 0.00918883 0)
(-0.0267505 0.00951125 0)
(-0.0295485 0.00978837 0)
(-0.032416 0.0100216 0)
(-0.0353415 0.0102127 0)
(-0.038314 0.0103635 0)
(-0.0413226 0.0104759 0)
(-0.0443574 0.0105522 0)
(-0.0474086 0.0105943 0)
(-0.0504671 0.0106046 0)
(-0.0535243 0.0105852 0)
(-0.0565724 0.0105383 0)
(-0.0596039 0.0104661 0)
(-0.0626119 0.0103707 0)
(-0.0655902 0.010254 0)
(-0.0685331 0.0101183 0)
(-0.0714354 0.00996522 0)
(-0.0742924 0.00979681 0)
(-0.0771 0.00961477 0)
(-0.0798544 0.0094208 0)
(-0.0825523 0.00921649 0)
(-0.0851911 0.00900334 0)
(-0.0877683 0.00878278 0)
(-0.0902819 0.00855611 0)
(-0.0927302 0.00832459 0)
(-0.0951119 0.00808934 0)
(-0.097426 0.00785144 0)
(-0.0996718 0.00761184 0)
(-0.101849 0.00737144 0)
(-0.103957 0.00713104 0)
(-0.105996 0.00689137 0)
(-0.107967 0.00665308 0)
(-0.109869 0.00641674 0)
(-0.111703 0.00618288 0)
(-0.113471 0.00595192 0)
(-0.115172 0.00572424 0)
(-0.116807 0.00550017 0)
(-0.118378 0.00527997 0)
(-0.119886 0.00506384 0)
(-0.121332 0.00485194 0)
(-0.122717 0.00464438 0)
(-0.124042 0.00444121 0)
(-0.125308 0.00424247 0)
(-0.126517 0.00404812 0)
(-0.12767 0.00385812 0)
(-0.128768 0.00367237 0)
(-0.129812 0.00349075 0)
(-0.130803 0.00331309 0)
(-0.131742 0.00313923 0)
(-0.132631 0.00296895 0)
(-0.13347 0.00280202 0)
(-0.13426 0.00263818 0)
(-0.135003 0.00247716 0)
(-0.135698 0.00231866 0)
(-0.136346 0.00216237 0)
(-0.136949 0.00200797 0)
(-0.137506 0.0018551 0)
(-0.138018 0.00170342 0)
(-0.138485 0.00155256 0)
(-0.138907 0.00140214 0)
(-0.139284 0.00125177 0)
(-0.139617 0.00110106 0)
(-0.139905 0.000949616 0)
(-0.140148 0.000797022 0)
(-0.140345 0.000642873 0)
(-0.140497 0.000486757 0)
(-0.140602 0.000328265 0)
(-0.140659 0.000166984 0)
(-0.140668 2.50609e-06 0)
(-0.140628 -0.000165572 0)
(-0.140538 -0.000337649 0)
(-0.140397 -0.000514114 0)
(-0.140203 -0.000695348 0)
(-0.139955 -0.000881718 0)
(-0.139651 -0.00107358 0)
(-0.139291 -0.00127126 0)
(-0.138871 -0.00147509 0)
(-0.138392 -0.00168535 0)
(-0.137849 -0.00190231 0)
(-0.137243 -0.00212622 0)
(-0.136571 -0.00235729 0)
(-0.13583 -0.00259567 0)
(-0.13502 -0.00284152 0)
(-0.134137 -0.00309491 0)
(-0.13318 -0.0033559 0)
(-0.132147 -0.00362448 0)
(-0.131035 -0.00390059 0)
(-0.129843 -0.0041841 0)
(-0.128569 -0.00447483 0)
(-0.12721 -0.00477253 0)
(-0.125765 -0.00507688 0)
(-0.124232 -0.00538748 0)
(-0.12261 -0.00570384 0)
(-0.120897 -0.00602539 0)
(-0.119092 -0.00635147 0)
(-0.117193 -0.00668134 0)
(-0.115201 -0.00701415 0)
(-0.113114 -0.00734894 0)
(-0.110932 -0.00768467 0)
(-0.108656 -0.00802017 0)
(-0.106284 -0.00835417 0)
(-0.103819 -0.0086853 0)
(-0.101262 -0.00901207 0)
(-0.0986133 -0.00933288 0)
(-0.0958756 -0.00964601 0)
(-0.0930514 -0.00994967 0)
(-0.0901438 -0.0102419 0)
(-0.0871562 -0.0105207 0)
(-0.0840928 -0.010784 0)
(-0.0809585 -0.0110295 0)
(-0.0777584 -0.0112549 0)
(-0.0744987 -0.0114579 0)
(-0.071186 -0.0116361 0)
(-0.0678275 -0.0117869 0)
(-0.0644313 -0.0119078 0)