/*--------------------------------*- C++ -*----------------------------------*\
  =========                 |
  \\      /  F ield         | OpenFOAM: The Open Source CFD Toolbox
   \\    /   O peration     | Website:  https://openfoam.org
    \\  /    A nd           | Version:  7
     \\/     M anipulation  |
\*---------------------------------------------------------------------------*/
FoamFile
{
    version     2.0;
    format      ascii;
    class       surfaceScalarField;
    location    "0.475";
    object      phi;
}
// * * * * * * * * * * * * * * * * * * * * * * * * * * * * * * * * * * * * * //

dimensions      [0 3 -1 0 0 0 0];

internalField   nonuniform List<scalar> 
101920
(
-2.96064e-14
2.57944e-13
-4.61943e-13
4.25912e-13
-8.99671e-13
4.37783e-13
-1.26657e-12
3.58658e-13
-1.47135e-12
2.15235e-13
-1.49888e-12
2.32992e-14
-1.30962e-12
-1.85473e-13
-9.08573e-13
-4.07216e-13
-2.84781e-13
-6.28944e-13
5.57972e-13
-8.41241e-13
1.61143e-12
-1.05034e-12
2.86734e-12
-1.25694e-12
4.31533e-12
-1.44899e-12
5.94614e-12
-1.63102e-12
7.74808e-12
-1.80475e-12
9.71657e-12
-1.96471e-12
1.18313e-11
-2.11538e-12
1.40866e-11
-2.25632e-12
1.64679e-11
-2.38627e-12
1.89706e-11
-2.5016e-12
2.15803e-11
-2.60794e-12
2.42871e-11
-2.70677e-12
2.7084e-11
-2.79598e-12
2.99588e-11
-2.87437e-12
3.29019e-11
-2.94351e-12
3.59067e-11
-3.00533e-12
3.89642e-11
-3.05846e-12
4.20672e-11
-3.10205e-12
4.52063e-11
-3.13824e-12
4.83727e-11
-3.16802e-12
5.15622e-11
-3.19063e-12
5.4769e-11
-3.20578e-12
5.79839e-11
-3.21444e-12
6.12014e-11
-3.21733e-12
6.44149e-11
-3.21539e-12
6.76195e-11
-3.20655e-12
7.08123e-11
-3.19106e-12
7.39846e-11
-3.17157e-12
7.7131e-11
-3.14711e-12
8.02493e-11
-3.11838e-12
8.33345e-11
-3.08579e-12
8.63824e-11
-3.04788e-12
8.93889e-11
-3.00578e-12
9.23498e-11
-2.96063e-12
9.52617e-11
-2.91245e-12
9.81216e-11
-2.86112e-12
1.00927e-10
-2.80576e-12
1.03674e-10
-2.74663e-12
1.06359e-10
-2.68518e-12
1.08981e-10
-2.62173e-12
1.11535e-10
-2.55587e-12
1.14022e-10
-2.48718e-12
1.16439e-10
-2.41588e-12
1.18783e-10
-2.3429e-12
1.21052e-10
-2.26852e-12
1.23243e-10
-2.19235e-12
1.25357e-10
-2.11437e-12
1.27391e-10
-2.0347e-12
1.29345e-10
-1.95331e-12
1.31216e-10
-1.87032e-12
1.33002e-10
-1.78601e-12
1.34704e-10
-1.70084e-12
1.36319e-10
-1.61526e-12
1.37847e-10
-1.52896e-12
1.39288e-10
-1.44102e-12
1.40639e-10
-1.35124e-12
1.41901e-10
-1.26062e-12
1.43072e-10
-1.17019e-12
1.44152e-10
-1.07987e-12
1.4514e-10
-9.88837e-13
1.46036e-10
-8.9674e-13
1.4684e-10
-8.0404e-13
1.47551e-10
-7.11096e-13
1.48168e-10
-6.17512e-13
1.48691e-10
-5.23021e-13
1.4912e-10
-4.28456e-13
1.49456e-10
-3.34812e-13
1.49697e-10
-2.41644e-13
1.49843e-10
-1.47548e-13
1.49895e-10
-5.21682e-14
1.49852e-10
4.33498e-14
1.49715e-10
1.38041e-13
1.49483e-10
2.32227e-13
1.49156e-10
3.26593e-13
1.48735e-10
4.21012e-13
1.4822e-10
5.14949e-13
1.47611e-10
6.08538e-13
1.46908e-10
7.02478e-13
1.46111e-10
7.96822e-13
1.45222e-10
8.90512e-13
1.4424e-10
9.82572e-13
1.43166e-10
1.07343e-12
1.42e-10
1.16442e-12
1.40743e-10
1.25595e-12
1.39397e-10
1.34699e-12
1.37962e-10
1.43657e-12
1.36437e-10
1.52502e-12
1.34824e-10
1.6129e-12
1.33125e-10
1.6998e-12
1.3134e-10
1.78495e-12
1.2947e-10
1.86873e-12
1.27517e-10
1.95219e-12
1.25482e-10
2.03524e-12
1.23367e-10
2.1165e-12
1.21174e-10
2.195e-12
1.18902e-10
2.27127e-12
1.16554e-10
2.34633e-12
1.14134e-10
2.42019e-12
1.11642e-10
2.49194e-12
1.09082e-10
2.56094e-12
1.06454e-10
2.6274e-12
1.03762e-10
2.69171e-12
1.01009e-10
2.75353e-12
9.81977e-11
2.81206e-12
9.53303e-11
2.86719e-12
9.241e-11
2.91954e-12
8.94408e-11
2.96924e-12
8.64264e-11
3.01526e-12
8.33705e-11
3.05656e-12
8.02765e-11
3.09339e-12
7.7149e-11
3.12653e-12
7.3993e-11
3.15576e-12
7.08133e-11
3.18012e-12
6.76142e-11
3.1993e-12
6.44006e-11
3.21369e-12
6.11783e-11
3.22306e-12
5.79532e-11
3.22629e-12
5.47311e-11
3.22264e-12
5.15179e-11
3.21251e-12
4.83199e-11
3.19656e-12
4.5145e-11
3.17448e-12
4.20008e-11
3.14498e-12
3.88943e-11
3.10717e-12
3.58323e-11
3.06142e-12
3.28231e-11
3.00828e-12
2.98765e-11
2.94715e-12
2.70008e-11
2.87691e-12
2.42041e-11
2.79711e-12
2.14955e-11
2.7081e-12
1.88852e-11
2.60998e-12
1.63839e-11
2.50185e-12
1.40022e-11
2.38265e-12
1.17495e-11
2.25242e-12
9.63605e-12
2.11193e-12
7.67358e-12
1.96146e-12
5.87389e-12
1.80025e-12
4.24729e-12
1.62742e-12
2.80383e-12
1.44352e-12
1.55381e-12
1.2499e-12
5.06726e-13
1.047e-12
-3.29638e-13
8.35421e-13
-9.49612e-13
6.17973e-13
-1.34946e-12
3.9902e-13
-1.5309e-12
1.83183e-13
-1.50492e-12
-2.35569e-14
-1.29405e-12
-2.10284e-13
-9.40116e-13
-3.56188e-13
-5.15812e-13
-4.26845e-13
-1.4439e-13
-3.70805e-13
-1.43511e-13
-3.13548e-13
5.69461e-13
-9.83294e-13
1.10234e-12
-1.66885e-12
1.12425e-12
-2.14173e-12
8.29429e-13
-2.24685e-12
3.11779e-13
-1.88113e-12
-3.41412e-13
-9.84923e-13
-1.07932e-12
4.73357e-13
-1.86554e-12
2.51682e-12
-2.66132e-12
5.12959e-12
-3.46079e-12
8.30784e-12
-4.23911e-12
1.20484e-11
-4.98663e-12
1.63116e-11
-5.71171e-12
2.10766e-11
-6.40334e-12
2.63253e-11
-7.05062e-12
3.20258e-11
-7.65946e-12
3.81431e-11
-8.23376e-12
4.4657e-11
-8.76642e-12
5.15357e-11
-9.25962e-12
5.87472e-11
-9.71409e-12
6.62636e-11
-1.01308e-11
7.40624e-11
-1.05076e-11
8.21182e-11
-1.08463e-11
9.0398e-11
-1.11518e-11
9.88758e-11
-1.14244e-11
1.07533e-10
-1.16628e-11
1.16345e-10
-1.18681e-11
1.25286e-10
-1.20421e-11
1.34335e-10
-1.21878e-11
1.43469e-10
-1.23051e-11
1.52671e-10
-1.23939e-11
1.61923e-10
-1.24555e-11
1.71201e-10
-1.24924e-11
1.80489e-10
-1.25062e-11
1.89772e-10
-1.24974e-11
1.99032e-10
-1.24663e-11
2.08254e-10
-1.24124e-11
2.17423e-10
-1.23395e-11
2.26522e-10
-1.22483e-11
2.3554e-10
-1.21379e-11
2.44467e-10
-1.20107e-11
2.53287e-10
-1.18673e-11
2.61988e-10
-1.17079e-11
2.70561e-10
-1.15342e-11
2.78994e-10
-1.13467e-11
2.8728e-10
-1.11456e-11
2.95408e-10
-1.0932e-11
3.03368e-10
-1.07063e-11
3.11152e-10
-1.04698e-11
3.18753e-10
-1.02236e-11
3.26164e-10
-9.96778e-12
3.33378e-10
-9.70204e-12
3.40389e-10
-9.42679e-12
3.47189e-10
-9.14335e-12
3.53774e-10
-8.85297e-12
3.60137e-10
-8.5558e-12
3.66275e-10
-8.25176e-12
3.72183e-10
-7.94129e-12
3.77855e-10
-7.62491e-12
3.83289e-10
-7.30316e-12
3.88479e-10
-6.97648e-12
3.93422e-10
-6.645e-12
3.98115e-10
-6.30899e-12
4.02558e-10
-5.96927e-12
4.06745e-10
-5.62631e-12
4.10673e-10
-5.27974e-12
4.1434e-10
-4.92941e-12
4.17744e-10
-4.57612e-12
4.20885e-10
-4.22075e-12
4.2376e-10
-3.8632e-12
4.26366e-10
-3.50304e-12
4.28704e-10
-3.14076e-12
4.30772e-10
-2.77752e-12
4.32568e-10
-2.41363e-12
4.3409e-10
-2.04805e-12
4.35339e-10
-1.68007e-12
4.36315e-10
-1.31068e-12
4.37017e-10
-9.4155e-13
4.37445e-10
-5.72892e-13
4.37596e-10
-2.03632e-13
4.37471e-10
1.66583e-13
4.37072e-10
5.3676e-13
4.36397e-10
9.06183e-13
4.35447e-10
1.27543e-12
4.34223e-10
1.64507e-12
4.32725e-10
2.01417e-12
4.30955e-10
2.38124e-12
4.28912e-10
2.74617e-12
4.26596e-10
3.11036e-12
4.24009e-10
3.47456e-12
4.21154e-10
3.83743e-12
4.18033e-10
4.1971e-12
4.14645e-10
4.55344e-12
4.10993e-10
4.90775e-12
4.07079e-10
5.26037e-12
4.02906e-10
5.60993e-12
3.98476e-10
5.95542e-12
3.9379e-10
6.29745e-12
3.88852e-10
6.63659e-12
3.83668e-10
6.97149e-12
3.78239e-10
7.3003e-12
3.72568e-10
7.62309e-12
3.6666e-10
7.94142e-12
3.60519e-10
8.25559e-12
3.54151e-10
8.56378e-12
3.47561e-10
8.86404e-12
3.40752e-10
9.15614e-12
3.3373e-10
9.44077e-12
3.26504e-10
9.71773e-12
3.19079e-10
9.98583e-12
3.11462e-10
1.02442e-11
3.03661e-10
1.0493e-11
2.95683e-10
1.07318e-11
2.87537e-10
1.09593e-11
2.79232e-10
1.11737e-11
2.70777e-10
1.13749e-11
2.62181e-10
1.15634e-11
2.53455e-10
1.17391e-11
2.44612e-10
1.19e-11
2.35663e-10
1.2044e-11
2.26619e-10
1.21708e-11
2.17494e-10
1.22806e-11
2.08302e-10
1.23728e-11
1.99057e-10
1.24455e-11
1.89774e-10
1.24974e-11
1.80468e-10
1.25282e-11
1.71155e-10
1.25375e-11
1.61855e-10
1.25238e-11
1.52585e-10
1.24848e-11
1.43362e-10
1.24193e-11
1.34206e-10
1.23277e-11
1.2514e-10
1.221e-11
1.16184e-10
1.20637e-11
1.07361e-10
1.18866e-11
9.86918e-11
1.16778e-11
9.02015e-11
1.14372e-11
8.1915e-11
1.11636e-11
7.38573e-11
1.08555e-11
6.60544e-11
1.05114e-11
5.85325e-11
1.01304e-11
5.13197e-11
9.71251e-12
4.44456e-11
9.2569e-12
3.79383e-11
8.76144e-12
3.18251e-11
8.22549e-12
2.61346e-11
7.65033e-12
2.08963e-11
7.03667e-12
1.6139e-11
6.38426e-12
1.18885e-11
5.69433e-12
8.16763e-12
4.97038e-12
4.99776e-12
4.21678e-12
2.39667e-12
3.43824e-12
3.73656e-13
2.64299e-12
-1.07227e-12
1.8452e-12
-1.9563e-12
1.06442e-12
-2.31355e-12
3.28651e-13
-2.20396e-12
-3.21173e-13
-1.72828e-12
-8.27805e-13
-1.04405e-12
-1.10927e-12
-3.7247e-13
-1.0475e-12
-5.14292e-13
-4.06087e-13
9.7574e-13
-1.07876e-12
1.7653e-12
-1.63493e-12
1.69449e-12
-1.82966e-12
1.01421e-12
-1.44376e-12
-6.7885e-14
-3.5512e-13
-1.43271e-12
1.52564e-12
-2.96977e-12
4.26309e-12
-4.59746e-12
7.87047e-12
-6.27176e-12
1.23618e-11
-7.94595e-12
1.77215e-11
-9.59565e-12
2.39281e-11
-1.11992e-11
3.09562e-11
-1.27435e-11
3.87754e-11
-1.42184e-11
4.73414e-11
-1.56162e-11
5.66121e-11
-1.69368e-11
6.65489e-11
-1.81734e-11
7.71084e-11
-1.93251e-11
8.82464e-11
-2.0394e-11
9.99147e-11
-2.13826e-11
1.12073e-10
-2.22892e-11
1.24681e-10
-2.31135e-11
1.37695e-10
-2.38593e-11
1.5107e-10
-2.45301e-11
1.64769e-10
-2.51263e-11
1.78757e-10
-2.56485e-11
1.92993e-10
-2.61013e-11
2.07438e-10
-2.64875e-11
2.22059e-10
-2.68098e-11
2.36823e-10
-2.70701e-11
2.51699e-10
-2.72685e-11
2.66653e-10
-2.74095e-11
2.81654e-10
-2.74961e-11
2.96675e-10
-2.75298e-11
3.11691e-10
-2.75122e-11
3.26673e-10
-2.74454e-11
3.41594e-10
-2.7333e-11
3.56431e-10
-2.71772e-11
3.71162e-10
-2.69796e-11
3.85763e-10
-2.67412e-11
4.00218e-10
-2.64638e-11
4.14503e-10
-2.61508e-11
4.28598e-10
-2.58042e-11
4.42487e-10
-2.54249e-11
4.56155e-10
-2.50145e-11
4.69584e-10
-2.45742e-11
4.8276e-10
-2.41061e-11
4.95665e-10
-2.36125e-11
5.08288e-10
-2.30944e-11
5.20616e-10
-2.25529e-11
5.32638e-10
-2.19893e-11
5.44342e-10
-2.14049e-11
5.55717e-10
-2.08011e-11
5.66752e-10
-2.0179e-11
5.77438e-10
-1.95403e-11
5.87768e-10
-1.88858e-11
5.97732e-10
-1.8216e-11
6.07323e-10
-1.75318e-11
6.16534e-10
-1.68345e-11
6.25357e-10
-1.61253e-11
6.33786e-10
-1.54054e-11
6.41815e-10
-1.46753e-11
6.4944e-10
-1.39349e-11
6.56655e-10
-1.31847e-11
6.63458e-10
-1.24263e-11
6.69841e-10
-1.1661e-11
6.758e-10
-1.0889e-11
6.81333e-10
-1.01103e-11
6.86437e-10
-9.32548e-12
6.91109e-10
-8.53575e-12
6.95346e-10
-7.74132e-12
6.99146e-10
-6.94184e-12
7.02506e-10
-6.13795e-12
7.05426e-10
-5.33139e-12
7.07903e-10
-4.52321e-12
7.09934e-10
-3.71282e-12
7.1152e-10
-2.89939e-12
7.12662e-10
-2.08352e-12
7.13357e-10
-1.26671e-12
7.13604e-10
-4.49707e-13
7.13402e-10
3.67742e-13
7.12753e-10
1.18554e-12
7.11657e-10
2.00272e-12
7.10115e-10
2.81844e-12
7.08126e-10
3.63294e-12
7.05691e-10
4.44672e-12
7.02813e-10
5.25922e-12
6.99493e-10
6.06879e-12
6.95731e-10
6.87428e-12
6.91529e-10
7.67589e-12
6.86889e-10
8.47416e-12
6.81816e-10
9.26864e-12
6.76312e-10
1.0058e-11
6.7038e-10
1.08415e-11
6.64022e-10
1.1619e-11
6.57242e-10
1.239e-11
6.50046e-10
1.31531e-11
6.42437e-10
1.39072e-11
6.34418e-10
1.46525e-11
6.25997e-10
1.53893e-11
6.17181e-10
1.61163e-11
6.07975e-10
1.68318e-11
5.98386e-10
1.75342e-11
5.88419e-10
1.82232e-11
5.78082e-10
1.88985e-11
5.67386e-10
1.95591e-11
5.56338e-10
2.02036e-11
5.44948e-10
2.0831e-11
5.33226e-10
2.14401e-11
5.21183e-10
2.20294e-11
5.08831e-10
2.25974e-11
4.96182e-10
2.31428e-11
4.83248e-10
2.36649e-11
4.70043e-10
2.41628e-11
4.56582e-10
2.46346e-11
4.42882e-10
2.50779e-11
4.28957e-10
2.54905e-11
4.14824e-10
2.58717e-11
4.00501e-10
2.62204e-11
3.86009e-10
2.65348e-11
3.71368e-10
2.68123e-11
3.56598e-10
2.7051e-11
3.41721e-10
2.72496e-11
3.26762e-10
2.74058e-11
3.11744e-10
2.7517e-11
2.96692e-10
2.75807e-11
2.81633e-10
2.75957e-11
2.66594e-10
2.75604e-11
2.51606e-10
2.74723e-11
2.36699e-10
2.73277e-11
2.21904e-10
2.71243e-11
2.07254e-10
2.68603e-11
1.92782e-10
2.6534e-11
1.78525e-10
2.61428e-11
1.6452e-10
2.56842e-11
1.50803e-10
2.51555e-11
1.37413e-10
2.45543e-11
1.2439e-10
2.38786e-11
1.11776e-10
2.31259e-11
9.9612e-11
2.22941e-11
8.79412e-11
2.13823e-11
7.68071e-11
2.03896e-11
6.62543e-11
1.93139e-11
5.63264e-11
1.81541e-11
4.70653e-11
1.69109e-11
3.85137e-11
1.55868e-11
3.07139e-11
1.41844e-11
2.37041e-11
1.27065e-11
1.75164e-11
1.11588e-11
1.21778e-11
9.55237e-12
7.7103e-12
7.90215e-12
4.12474e-12
6.22836e-12
1.41406e-12
4.55864e-12
-4.49286e-13
2.93101e-12
-1.51997e-12
1.39953e-12
-1.88707e-12
4.20992e-14
-1.68561e-12
-1.0333e-12
-1.10937e-12
-1.68375e-12
-4.24587e-13
-1.7317e-12
-9.41429e-13
-3.43358e-13
1.31624e-12
-8.03551e-13
2.22494e-12
-9.97004e-13
1.87278e-12
-6.19167e-13
6.44136e-13
5.22491e-13
-1.21572e-12
2.59068e-12
-3.50453e-12
5.68914e-12
-6.06735e-12
9.87833e-12
-8.78968e-12
1.51957e-11
-1.15908e-11
2.16522e-11
-1.44015e-11
2.92377e-11
-1.71803e-11
3.79267e-11
-1.98912e-11
4.76894e-11
-2.25088e-11
5.84905e-11
-2.5014e-11
7.02715e-11
-2.73979e-11
8.29882e-11
-2.96536e-11
9.65874e-11
-3.17706e-11
1.11011e-10
-3.37478e-11
1.26203e-10
-3.55875e-11
1.42107e-10
-3.72882e-11
1.58668e-10
-3.88497e-11
1.7583e-10
-4.02734e-11
1.93536e-10
-4.1564e-11
2.11732e-10
-4.27255e-11
2.30366e-10
-4.37594e-11
2.49387e-10
-4.46686e-11
2.68744e-10
-4.5458e-11
2.88386e-10
-4.61334e-11
3.0827e-10
-4.66961e-11
3.2835e-10
-4.71499e-11
3.48582e-10
-4.74994e-11
3.68922e-10
-4.775e-11
3.89329e-10
-4.79057e-11
4.09767e-10
-4.79682e-11
4.30199e-10
-4.79421e-11
4.50587e-10
-4.78323e-11
4.70895e-10
-4.76422e-11
4.91093e-10
-4.73757e-11
5.1115e-10
-4.70361e-11
5.31034e-10
-4.66261e-11
5.50719e-10
-4.61485e-11
5.70176e-10
-4.56079e-11
5.89379e-10
-4.5008e-11
6.08304e-10
-4.43511e-11
6.2693e-10
-4.36397e-11
6.45233e-10
-4.28764e-11
6.63192e-10
-4.20644e-11
6.80786e-10
-4.12075e-11
6.97998e-10
-4.03074e-11
7.1481e-10
-3.93659e-11
7.31206e-10
-3.83854e-11
7.47171e-10
-3.73686e-11
7.62688e-10
-3.6318e-11
7.77744e-10
-3.52355e-11
7.92325e-10
-3.41228e-11
8.06422e-10
-3.2982e-11
8.20021e-10
-3.18146e-11
8.33112e-10
-3.06224e-11
8.45685e-10
-2.94069e-11
8.5773e-10
-2.81702e-11
8.69238e-10
-2.6914e-11
8.80202e-10
-2.56393e-11
8.90615e-10
-2.43472e-11
9.00469e-10
-2.30386e-11
9.09758e-10
-2.1715e-11
9.18476e-10
-2.03782e-11
9.26616e-10
-1.90296e-11
9.34175e-10
-1.76697e-11
9.41147e-10
-1.6299e-11
9.47531e-10
-1.49186e-11
9.53321e-10
-1.35299e-11
9.58513e-10
-1.21339e-11
9.63105e-10
-1.07309e-11
9.67093e-10
-9.32174e-12
9.70477e-10
-7.90783e-12
9.73255e-10
-6.49012e-12
9.75424e-10
-5.06856e-12
9.76984e-10
-3.64334e-12
9.77934e-10
-2.21572e-12
9.78272e-10
-7.87265e-13
9.77998e-10
6.41306e-13
9.77111e-10
2.07002e-12
9.75614e-10
3.49853e-12
9.73508e-10
4.92572e-12
9.70792e-10
6.35047e-12
9.67467e-10
7.77225e-12
9.63535e-10
9.19064e-12
9.58998e-10
1.06047e-11
9.53859e-10
1.20131e-11
9.4812e-10
1.34148e-11
9.41784e-10
1.48097e-11
9.34855e-10
1.61971e-11
9.27338e-10
1.75759e-11
9.19236e-10
1.89444e-11
9.10553e-10
2.03016e-11
9.01295e-10
2.16471e-11
8.91468e-10
2.29796e-11
8.81079e-10
2.42974e-11
8.70133e-10
2.55992e-11
8.58638e-10
2.68841e-11
8.46603e-10
2.81508e-11
8.34037e-10
2.93977e-11
8.20949e-10
3.06229e-11
8.07347e-10
3.1825e-11
7.93244e-10
3.30026e-11
7.7865e-10
3.41537e-11
7.63578e-10
3.52761e-11
7.48041e-10
3.63677e-11
7.32053e-10
3.74269e-11
7.1563e-10
3.8452e-11
6.98787e-10
3.94407e-11
6.81541e-10
4.03902e-11
6.63909e-10
4.12978e-11
6.45911e-10
4.21614e-11
6.27566e-10
4.2979e-11
6.08895e-10
4.37476e-11
5.89922e-10
4.44638e-11
5.70669e-10
4.51249e-11
5.51162e-10
4.57283e-11
5.31425e-10
4.62709e-11
5.11489e-10
4.67492e-11
4.9138e-10
4.71599e-11
4.71129e-10
4.75004e-11
4.50767e-10
4.77673e-11
4.30328e-10
4.79563e-11
4.09847e-10
4.80633e-11
3.89359e-10
4.80849e-11
3.68901e-10
4.80177e-11
3.48514e-10
4.78583e-11
3.28238e-10
4.76023e-11
3.08117e-10
4.72454e-11
2.88194e-10
4.67838e-11
2.68514e-10
4.6214e-11
2.49126e-10
4.55318e-11
2.30078e-10
4.47329e-11
2.1142e-10
4.38135e-11
1.93204e-10
4.27704e-11
1.75482e-10
4.16e-11
1.58309e-10
4.02987e-11
1.41741e-10
3.88629e-11
1.25834e-10
3.72905e-11
1.10642e-10
3.55802e-11
9.62232e-11
3.37313e-11
8.26352e-11
3.17429e-11
6.99323e-11
2.96151e-11
5.8167e-11
2.73517e-11
4.739e-11
2.49593e-11
3.76486e-11
2.24464e-11
2.89833e-11
1.98244e-11
2.14258e-11
1.71107e-11
1.49992e-11
1.43302e-11
9.7118e-12
1.15169e-11
5.55082e-12
8.71743e-12
2.48071e-12
5.996e-12
4.36378e-13
3.43996e-12
-6.84292e-13
1.16587e-12
-1.03502e-12
-6.78086e-13
-8.34012e-13
-1.88711e-12
-3.5397e-13
-2.20646e-12
-1.29848e-12
-2.02617e-13
1.5233e-12
-3.01715e-13
2.32235e-12
7.94228e-14
1.49473e-12
1.22267e-12
-4.99007e-13
3.3365e-12
-3.33576e-12
6.58614e-12
-6.74926e-12
1.10749e-11
-1.05507e-11
1.68652e-11
-1.45894e-11
2.4011e-11
-1.87342e-11
3.25134e-11
-2.2905e-11
4.23698e-11
-2.70369e-11
5.35529e-11
-3.10788e-11
6.60313e-11
-3.49848e-11
7.97582e-11
-3.8736e-11
9.46711e-11
-4.2316e-11
1.10726e-10
-4.57026e-11
1.27851e-10
-4.88925e-11
1.4598e-10
-5.18796e-11
1.6505e-10
-5.46605e-11
1.84993e-10
-5.72324e-11
2.05744e-10
-5.95973e-11
2.27231e-10
-6.17602e-11
2.49388e-10
-6.37238e-11
2.72152e-10
-6.54907e-11
2.95459e-10
-6.70643e-11
3.19243e-10
-6.84519e-11
3.43443e-10
-6.96594e-11
3.68001e-10
-7.06919e-11
3.92859e-10
-7.15541e-11
4.17964e-10
-7.22513e-11
4.43256e-10
-7.27913e-11
4.68685e-10
-7.31802e-11
4.94202e-10
-7.34234e-11
5.19758e-10
-7.35257e-11
5.45309e-10
-7.34918e-11
5.70807e-10
-7.33297e-11
5.96208e-10
-7.30451e-11
6.21474e-10
-7.26424e-11
6.46567e-10
-7.21273e-11
6.71449e-10
-7.15052e-11
6.96082e-10
-7.07807e-11
7.20432e-10
-6.99595e-11
7.44469e-10
-6.90461e-11
7.68162e-10
-6.80445e-11
7.91482e-10
-6.69588e-11
8.144e-10
-6.57937e-11
8.36889e-10
-6.4554e-11
8.58926e-10
-6.32444e-11
8.80486e-10
-6.18682e-11
9.01548e-10
-6.04284e-11
9.22091e-10
-5.89285e-11
9.42095e-10
-5.73723e-11
9.6154e-10
-5.57636e-11
9.8041e-10
-5.41056e-11
9.98687e-10
-5.2401e-11
1.01636e-09
-5.06525e-11
1.03341e-09
-4.88628e-11
1.04982e-09
-4.70349e-11
1.06558e-09
-4.51714e-11
1.08069e-09
-4.32746e-11
1.09512e-09
-4.13467e-11
1.10887e-09
-3.93901e-11
1.12193e-09
-3.74069e-11
1.13429e-09
-3.53986e-11
1.14595e-09
-3.33672e-11
1.15688e-09
-3.13147e-11
1.1671e-09
-2.92433e-11
1.17658e-09
-2.71542e-11
1.18533e-09
-2.50487e-11
1.19334e-09
-2.29283e-11
1.2006e-09
-2.0795e-11
1.20712e-09
-1.86501e-11
1.21288e-09
-1.64946e-11
1.21789e-09
-1.43295e-11
1.22214e-09
-1.21562e-11
1.22562e-09
-9.9765e-12
1.22835e-09
-7.79142e-12
1.23031e-09
-5.60157e-12
1.2315e-09
-3.40808e-12
1.23192e-09
-1.21262e-12
1.23158e-09
9.83536e-13
1.23047e-09
3.17983e-12
1.22859e-09
5.37555e-12
1.22595e-09
7.56917e-12
1.22254e-09
9.75888e-12
1.21837e-09
1.19436e-11
1.21344e-09
1.41228e-11
1.20775e-09
1.62957e-11
1.2013e-09
1.84603e-11
1.1941e-09
2.06146e-11
1.18615e-09
2.27576e-11
1.17746e-09
2.48885e-11
1.16803e-09
2.70062e-11
1.15787e-09
2.91082e-11
1.14698e-09
3.11926e-11
1.13536e-09
3.32584e-11
1.12304e-09
3.53043e-11
1.11001e-09
3.73277e-11
1.09628e-09
3.93258e-11
1.08187e-09
4.12969e-11
1.06678e-09
4.324e-11
1.05103e-09
4.5153e-11
1.03462e-09
4.70327e-11
1.01757e-09
4.88758e-11
9.99889e-10
5.06803e-11
9.81598e-10
5.2444e-11
9.6271e-10
5.41637e-11
9.43242e-10
5.58362e-11
9.2321e-10
5.74582e-11
9.02635e-10
5.90273e-11
8.81535e-10
6.05402e-11
8.59934e-10
6.19927e-11
8.37852e-10
6.33806e-11
8.15314e-10
6.47002e-11
7.92344e-10
6.59485e-11
7.68969e-10
6.71218e-11
7.45217e-10
6.82149e-11
7.21119e-10
6.9223e-11
6.96705e-10
7.0142e-11
6.72008e-10
7.09677e-11
6.47062e-10
7.16952e-11
6.21905e-10
7.23189e-11
5.96572e-10
7.2834e-11
5.71104e-10
7.32356e-11
5.45541e-10
7.35186e-11
5.19927e-10
7.36771e-11
4.94308e-10
7.37048e-11
4.68729e-10
7.35962e-11
4.4324e-10
7.33466e-11
4.17891e-10
7.29505e-11
3.92735e-10
7.24013e-11
3.67827e-10
7.16923e-11
3.43223e-10
7.08184e-11
3.1898e-10
6.97743e-11
2.9516e-10
6.8554e-11
2.71823e-10
6.71517e-11
2.49032e-10
6.5562e-11
2.26851e-10
6.37801e-11
2.05347e-10
6.18021e-11
1.84586e-10
5.96239e-11
1.64637e-10
5.72414e-11
1.45565e-10
5.46523e-11
1.27438e-10
5.18568e-11
1.10323e-10
4.88561e-11
9.42849e-11
4.56523e-11
7.93868e-11
4.22508e-11
6.56857e-11
3.86615e-11
5.32339e-11
3.48984e-11
4.20774e-11
3.09804e-11
3.2252e-11
2.69346e-11
2.37811e-11
2.27995e-11
1.66725e-11
1.8626e-11
1.09116e-11
1.44806e-11
6.4587e-12
1.04522e-11
3.24339e-12
6.65815e-12
1.15113e-12
3.25133e-12
3.4696e-14
4.40475e-13
-3.3008e-13
-1.52729e-12
-2.13484e-13
-2.32148e-12
-1.5118e-12
-2.32478e-14
1.53977e-12
3.49147e-13
1.9575e-12
1.43393e-12
4.05978e-13
3.49718e-12
-2.5696e-12
6.74817e-12
-6.57931e-12
1.13244e-11
-1.13277e-11
1.73342e-11
-1.65677e-11
2.48555e-11
-2.21065e-11
3.39186e-11
-2.77954e-11
4.45323e-11
-3.35276e-11
5.66976e-11
-3.92051e-11
7.03919e-11
-4.47651e-11
8.55639e-11
-5.01587e-11
1.02169e-10
-5.53459e-11
1.2015e-10
-6.02986e-11
1.39443e-10
-6.49938e-11
1.59976e-10
-6.94226e-11
1.81672e-10
-7.35776e-11
2.04464e-10
-7.74504e-11
2.28272e-10
-8.10381e-11
2.53018e-10
-8.43425e-11
2.78625e-10
-8.73681e-11
3.05016e-10
-9.01167e-11
3.3212e-10
-9.25919e-11
3.59858e-10
-9.48017e-11
3.88156e-10
-9.67523e-11
4.16945e-10
-9.84512e-11
4.46156e-10
-9.99043e-11
4.75723e-10
-1.01119e-10
5.05578e-10
-1.02105e-10
5.35656e-10
-1.0287e-10
5.65897e-10
-1.03423e-10
5.96246e-10
-1.0377e-10
6.26642e-10
-1.0392e-10
6.5703e-10
-1.03879e-10
6.87359e-10
-1.03659e-10
7.17576e-10
-1.03265e-10
7.47634e-10
-1.02703e-10
7.77489e-10
-1.01982e-10
8.07094e-10
-1.0111e-10
8.36407e-10
-1.00094e-10
8.65387e-10
-9.89402e-11
8.93996e-10
-9.76558e-11
9.22199e-10
-9.62463e-11
9.49961e-10
-9.47185e-11
9.77247e-10
-9.3079e-11
1.00402e-09
-9.13335e-11
1.03027e-09
-8.94875e-11
1.05594e-09
-8.75462e-11
1.08103e-09
-8.55148e-11
1.1055e-09
-8.33985e-11
1.12933e-09
-8.12022e-11
1.1525e-09
-7.89311e-11
1.17498e-09
-7.65896e-11
1.19676e-09
-7.41816e-11
1.21782e-09
-7.17107e-11
1.23814e-09
-6.91811e-11
1.2577e-09
-6.65969e-11
1.27649e-09
-6.39622e-11
1.2945e-09
-6.12803e-11
1.3117e-09
-5.85538e-11
1.3281e-09
-5.57854e-11
1.34367e-09
-5.29784e-11
1.35841e-09
-5.01363e-11
1.37231e-09
-4.72618e-11
1.38535e-09
-4.43568e-11
1.39753e-09
-4.14242e-11
1.40884e-09
-3.84666e-11
1.41928e-09
-3.54858e-11
1.42883e-09
-3.24832e-11
1.4375e-09
-2.94611e-11
1.44527e-09
-2.64224e-11
1.45215e-09
-2.33696e-11
1.45812e-09
-2.03037e-11
1.46319e-09
-1.72257e-11
1.46735e-09
-1.41373e-11
1.4706e-09
-1.10412e-11
1.47294e-09
-7.93885e-12
1.47436e-09
-4.83153e-12
1.47487e-09
-1.7208e-12
1.47446e-09
1.39117e-12
1.47314e-09
4.50255e-12
1.4709e-09
7.61235e-12
1.46775e-09
1.07197e-11
1.46368e-09
1.38227e-11
1.45871e-09
1.69188e-11
1.45283e-09
2.00058e-11
1.44604e-09
2.30825e-11
1.43835e-09
2.61477e-11
1.42977e-09
2.91996e-11
1.42029e-09
3.22353e-11
1.40992e-09
3.5253e-11
1.39868e-09
3.82511e-11
1.38656e-09
4.12275e-11
1.37358e-09
4.41791e-11
1.35973e-09
4.71029e-11
1.34504e-09
4.9997e-11
1.3295e-09
5.28598e-11
1.31314e-09
5.56883e-11
1.29596e-09
5.84783e-11
1.27798e-09
6.12268e-11
1.2592e-09
6.3931e-11
1.23964e-09
6.6588e-11
1.21932e-09
6.91941e-11
1.19826e-09
7.17452e-11
1.17647e-09
7.42375e-11
1.15396e-09
7.66671e-11
1.13077e-09
7.90296e-11
1.10691e-09
8.13204e-11
1.0824e-09
8.35348e-11
1.05727e-09
8.56687e-11
1.03155e-09
8.77174e-11
1.00525e-09
8.96756e-11
9.78415e-10
9.15371e-11
9.51069e-10
9.3296e-11
9.23243e-10
9.49473e-11
8.94971e-10
9.64856e-11
8.66289e-10
9.79044e-11
8.37235e-10
9.91968e-11
8.07846e-10
1.00356e-10
7.78163e-10
1.01377e-10
7.48232e-10
1.02252e-10
7.18095e-10
1.02973e-10
6.87799e-10
1.03533e-10
6.57392e-10
1.03924e-10
6.26926e-10
1.04142e-10
5.96455e-10
1.04176e-10
5.66034e-10
1.04018e-10
5.3572e-10
1.03661e-10
5.05573e-10
1.03097e-10
4.75653e-10
1.02319e-10
4.46027e-10
1.01318e-10
4.1676e-10
1.00086e-10
3.87919e-10
9.86161e-11
3.59574e-10
9.68995e-11
3.31797e-10
9.49296e-11
3.0466e-10
9.26994e-11
2.78239e-10
9.0202e-11
2.52608e-10
8.74323e-11
2.27845e-10
8.43858e-11
2.04028e-10
8.10588e-11
1.81232e-10
7.74483e-11
1.59535e-10
7.35545e-11
1.39009e-10
6.93804e-11
1.1973e-10
6.4931e-11
1.01768e-10
6.02145e-11
8.51851e-11
5.52448e-11
7.00384e-11
5.00433e-11
5.63786e-11
4.46385e-11
4.42454e-11
3.90681e-11
3.36629e-11
3.33833e-11
2.46387e-11
2.76515e-11
1.71582e-11
2.19605e-11
1.11816e-11
1.64253e-11
6.63788e-12
1.11994e-11
3.42474e-12
6.46862e-12
1.38406e-12
2.47835e-12
3.19021e-13
-4.65024e-13
-3.11982e-14
-1.97489e-12
-1.54101e-12
1.84911e-13
1.35521e-12
1.08112e-12
1.06143e-12
2.96269e-12
-1.47897e-12
6.06096e-12
-5.66543e-12
1.05506e-11
-1.10685e-11
1.6566e-11
-1.73432e-11
2.42066e-11
-2.42055e-11
3.35408e-11
-3.14312e-11
4.45893e-11
-3.88489e-11
5.73733e-11
-4.63112e-11
7.18776e-11
-5.37107e-11
8.808e-11
-6.0965e-11
1.0593e-10
-6.80102e-11
1.25378e-10
-7.47952e-11
1.46363e-10
-8.12795e-11
1.68809e-10
-8.74393e-11
1.92643e-10
-9.3259e-11
2.17785e-10
-9.87233e-11
2.44157e-10
-1.0382e-10
2.7167e-10
-1.0855e-10
3.00239e-10
-1.12913e-10
3.29779e-10
-1.16909e-10
3.60207e-10
-1.20544e-10
3.91438e-10
-1.23821e-10
4.23387e-10
-1.26749e-10
4.55972e-10
-1.29338e-10
4.89115e-10
-1.31594e-10
5.22737e-10
-1.33526e-10
5.56762e-10
-1.35144e-10
5.91115e-10
-1.3646e-10
6.25722e-10
-1.37482e-10
6.60518e-10
-1.38221e-10
6.95435e-10
-1.38687e-10
7.30408e-10
-1.3889e-10
7.65371e-10
-1.38842e-10
8.00267e-10
-1.38553e-10
8.35037e-10
-1.38034e-10
8.69626e-10
-1.37292e-10
9.03982e-10
-1.36338e-10
9.38053e-10
-1.35181e-10
9.7179e-10
-1.33832e-10
1.00515e-09
-1.32298e-10
1.03808e-09
-1.3059e-10
1.07055e-09
-1.28713e-10
1.10251e-09
-1.26679e-10
1.13393e-09
-1.24495e-10
1.16476e-09
-1.22169e-10
1.19498e-09
-1.19708e-10
1.22455e-09
-1.17119e-10
1.25345e-09
-1.14409e-10
1.28163e-09
-1.11585e-10
1.30908e-09
-1.08654e-10
1.33577e-09
-1.05621e-10
1.36168e-09
-1.02494e-10
1.38677e-09
-9.92773e-11
1.41104e-09
-9.59761e-11
1.43446e-09
-9.25959e-11
1.457e-09
-8.91423e-11
1.47866e-09
-8.56201e-11
1.49941e-09
-8.20338e-11
1.51925e-09
-7.83874e-11
1.53815e-09
-7.4685e-11
1.5561e-09
-7.09305e-11
1.57309e-09
-6.71282e-11
1.58911e-09
-6.32819e-11
1.60415e-09
-5.9395e-11
1.61819e-09
-5.54703e-11
1.63124e-09
-5.15111e-11
1.64327e-09
-4.75205e-11
1.65429e-09
-4.35015e-11
1.66429e-09
-3.94565e-11
1.67325e-09
-3.53884e-11
1.68118e-09
-3.13002e-11
1.68807e-09
-2.71944e-11
1.69392e-09
-2.30728e-11
1.69872e-09
-1.89374e-11
1.70247e-09
-1.47908e-11
1.70517e-09
-1.06359e-11
1.70681e-09
-6.47485e-12
1.7074e-09
-2.30947e-12
1.70693e-09
1.85827e-12
1.70541e-09
6.02604e-12
1.70283e-09
1.01915e-11
1.6992e-09
1.43526e-11
1.69451e-09
1.85073e-11
1.68878e-09
2.26531e-11
1.68199e-09
2.67874e-11
1.67417e-09
3.09076e-11
1.66531e-09
3.50118e-11
1.65541e-09
3.90975e-11
1.64448e-09
4.3162e-11
1.63253e-09
4.7202e-11
1.61957e-09
5.12149e-11
1.6056e-09
5.51979e-11
1.59063e-09
5.9148e-11
1.57467e-09
6.30615e-11
1.55773e-09
6.69348e-11
1.53983e-09
7.07646e-11
1.52097e-09
7.45473e-11
1.50117e-09
7.82787e-11
1.48044e-09
8.19546e-11
1.4588e-09
8.5571e-11
1.43626e-09
8.91236e-11
1.41285e-09
9.26073e-11
1.38858e-09
9.60166e-11
1.36347e-09
9.93462e-11
1.33755e-09
1.02591e-10
1.31083e-09
1.05746e-10
1.28334e-09
1.08806e-10
1.25512e-09
1.11763e-10
1.22618e-09
1.14611e-10
1.19655e-09
1.17344e-10
1.16627e-09
1.19955e-10
1.13537e-09
1.22437e-10
1.10388e-09
1.24782e-10
1.07185e-09
1.26983e-10
1.0393e-09
1.29031e-10
1.00629e-09
1.3092e-10
9.72845e-10
1.32639e-10
9.39021e-10
1.3418e-10
9.04861e-10
1.35536e-10
8.70415e-10
1.36697e-10
8.35735e-10
1.37653e-10
8.00875e-10
1.38395e-10
7.65888e-10
1.38912e-10
7.30835e-10
1.39195e-10
6.95775e-10
1.39235e-10
6.60772e-10
1.3902e-10
6.25893e-10
1.38541e-10
5.91203e-10
1.37787e-10
5.56774e-10
1.36748e-10
5.22678e-10
1.35415e-10
4.8899e-10
1.33775e-10
4.55786e-10
1.3182e-10
4.23145e-10
1.29541e-10
3.91147e-10
1.26928e-10
3.59873e-10
1.23973e-10
3.29409e-10
1.20667e-10
2.99839e-10
1.17004e-10
2.71246e-10
1.12978e-10
2.43717e-10
1.08587e-10
2.17338e-10
1.03828e-10
1.92192e-10
9.87012e-11
1.6836e-10
9.32111e-11
1.45923e-10
8.73663e-11
1.24958e-10
8.118e-11
1.05532e-10
7.46713e-11
8.7708e-11
6.78678e-11
7.15384e-11
6.08075e-11
5.70664e-11
5.35398e-11
4.43192e-11
4.61296e-11
3.33059e-11
3.86631e-11
2.4015e-11
3.12487e-11
1.64158e-11
2.40305e-11
1.04327e-11
1.71783e-11
5.97975e-12
1.09239e-11
2.91025e-12
5.54504e-12
1.05355e-12
1.39327e-12
1.75784e-13
-1.09976e-12
-1.36396e-12
4.02051e-13
9.52031e-13
1.85775e-12
-4.00215e-13
4.59707e-12
-4.20963e-12
8.79396e-12
-9.86126e-12
1.45998e-11
-1.68822e-11
2.21314e-11
-2.48804e-11
3.14735e-11
-3.35478e-11
4.26766e-11
-4.26372e-11
5.57677e-11
-5.19435e-11
7.07539e-11
-6.12983e-11
8.76146e-11
-7.05752e-11
1.06325e-10
-7.96756e-11
1.26832e-10
-8.85191e-11
1.49085e-10
-9.70418e-11
1.73014e-10
-1.05203e-10
1.98534e-10
-1.12967e-10
2.25575e-10
-1.20303e-10
2.54053e-10
-1.27196e-10
2.83874e-10
-1.33638e-10
3.14948e-10
-1.39622e-10
3.47182e-10
-1.45148e-10
3.80485e-10
-1.50214e-10
4.14767e-10
-1.54824e-10
4.49932e-10
-1.58986e-10
4.85889e-10
-1.62709e-10
5.22549e-10
-1.66001e-10
5.59827e-10
-1.68871e-10
5.97635e-10
-1.71331e-10
6.35886e-10
-1.73395e-10
6.74502e-10
-1.75074e-10
7.13401e-10
-1.76382e-10
7.52507e-10
-1.77328e-10
7.91748e-10
-1.77927e-10
8.31049e-10
-1.78191e-10
8.70338e-10
-1.78135e-10
9.09552e-10
-1.77769e-10
9.48626e-10
-1.77108e-10
9.87498e-10
-1.76163e-10
1.02611e-09
-1.74946e-10
1.0644e-09
-1.73471e-10
1.10232e-09
-1.7175e-10
1.13981e-09
-1.69792e-10
1.17683e-09
-1.67609e-10
1.21333e-09
-1.6521e-10
1.24926e-09
-1.62609e-10
1.28458e-09
-1.59815e-10
1.31925e-09
-1.56839e-10
1.35323e-09
-1.53688e-10
1.38648e-09
-1.50373e-10
1.41897e-09
-1.46902e-10
1.45067e-09
-1.43284e-10
1.48155e-09
-1.39528e-10
1.51157e-09
-1.35642e-10
1.5407e-09
-1.31633e-10
1.56893e-09
-1.27508e-10
1.59623e-09
-1.23275e-10
1.62258e-09
-1.18939e-10
1.64794e-09
-1.14509e-10
1.67231e-09
-1.09989e-10
1.69566e-09
-1.05387e-10
1.71798e-09
-1.00707e-10
1.73925e-09
-9.59543e-11
1.75946e-09
-9.11346e-11
1.77858e-09
-8.62526e-11
1.79662e-09
-8.13134e-11
1.81354e-09
-7.63215e-11
1.82935e-09
-7.12809e-11
1.84404e-09
-6.61955e-11
1.85759e-09
-6.10694e-11
1.86999e-09
-5.59065e-11
1.88124e-09
-5.07099e-11
1.89134e-09
-4.5483e-11
1.90027e-09
-4.02297e-11
1.90802e-09
-3.49535e-11
1.91461e-09
-2.96572e-11
1.92001e-09
-2.43433e-11
1.92424e-09
-1.90148e-11
1.92728e-09
-1.36752e-11
1.92913e-09
-8.32734e-12
1.92979e-09
-2.97383e-12
1.92927e-09
2.38274e-12
1.92756e-09
7.73917e-12
1.92466e-09
1.30923e-11
1.92057e-09
1.84394e-11
1.9153e-09
2.37784e-11
1.90884e-09
2.91064e-11