/*--------------------------------*- C++ -*----------------------------------*\
  =========                 |
  \\      /  F ield         | OpenFOAM: The Open Source CFD Toolbox
   \\    /   O peration     | Website:  https://openfoam.org
    \\  /    A nd           | Version:  7
     \\/     M anipulation  |
\*---------------------------------------------------------------------------*/
FoamFile
{
    version     2.0;
    format      ascii;
    class       surfaceScalarField;
    location    "0.2375";
    object      phi;
}
// * * * * * * * * * * * * * * * * * * * * * * * * * * * * * * * * * * * * * //

dimensions      [0 3 -1 0 0 0 0];

internalField   nonuniform List<scalar> 
101920
(
1.247e-14
8.36944e-14
-4.8121e-13
4.94473e-13
-4.65854e-13
-1.73223e-14
-2.10753e-13
-2.51954e-13
2.98558e-13
-5.09357e-13
9.56248e-13
-6.59067e-13
1.68385e-12
-7.26047e-13
2.42197e-12
-7.37544e-13
3.13154e-12
-7.09348e-13
3.7888e-12
-6.56929e-13
4.37846e-12
-5.89014e-13
4.88619e-12
-5.08241e-13
5.30357e-12
-4.18621e-13
5.62427e-12
-3.21151e-13
5.84249e-12
-2.19398e-13
5.95817e-12
-1.16296e-13
5.96757e-12
-1.02136e-14
5.86899e-12
9.7757e-14
5.66243e-12
2.06011e-13
5.3479e-12
3.13753e-13
4.92897e-12
4.18823e-13
4.40629e-12
5.21412e-13
3.7817e-12
6.24254e-13
3.05738e-12
7.23998e-13
2.23712e-12
8.19586e-13
1.32475e-12
9.12695e-13
3.23426e-13
1.00165e-12
-7.62524e-13
1.08633e-12
-1.92909e-12
1.16766e-12
-3.17187e-12
1.24385e-12
-4.48494e-12
1.31414e-12
-5.86412e-12
1.38021e-12
-7.30616e-12
1.44242e-12
-8.80592e-12
1.49982e-12
-1.03583e-11
1.55238e-12
-1.19585e-11
1.6001e-12
-1.36007e-11
1.64227e-12
-1.52789e-11
1.67854e-12
-1.69886e-11
1.70953e-12
-1.87259e-11
1.73667e-12
-2.04865e-11
1.76008e-12
-2.22655e-11
1.77824e-12
-2.40572e-11
1.79095e-12
-2.58563e-11
1.79914e-12
-2.76591e-11
1.80309e-12
-2.94617e-11
1.80256e-12
-3.12592e-11
1.79767e-12
-3.30473e-11
1.78859e-12
-3.48221e-11
1.77521e-12
-3.65791e-11
1.7575e-12
-3.8314e-11
1.73538e-12
-4.0023e-11
1.70926e-12
-4.17021e-11
1.67939e-12
-4.33476e-11
1.64535e-12
-4.49558e-11
1.60752e-12
-4.65233e-11
1.5669e-12
-4.80477e-11
1.52389e-12
-4.95265e-11
1.47819e-12
-5.09555e-11
1.42894e-12
-5.23317e-11
1.37614e-12
-5.3653e-11
1.32123e-12
-5.4917e-11
1.26473e-12
-5.61218e-11
1.20554e-12
-5.72648e-11
1.14314e-12
-5.83425e-11
1.07813e-12
-5.93534e-11
1.01152e-12
-6.02973e-11
9.44017e-13
-6.11724e-11
8.75322e-13
-6.19763e-11
8.04555e-13
-6.27071e-11
7.31272e-13
-6.33632e-11
6.56213e-13
-6.39442e-11
5.80768e-13
-6.44502e-11
5.05305e-13
-6.48803e-11
4.29036e-13
-6.52328e-11
3.51524e-13
-6.55067e-11
2.73224e-13
-6.57016e-11
1.94647e-13
-6.58176e-11
1.15983e-13
-6.58545e-11
3.74274e-14
-6.58127e-11
-4.10754e-14
-6.5692e-11
-1.19889e-13
-6.54924e-11
-1.99098e-13
-6.52143e-11
-2.78065e-13
-6.48585e-11
-3.56102e-13
-6.44261e-11
-4.32984e-13
-6.39178e-11
-5.0904e-13
-6.33338e-11
-5.84339e-13
-6.26749e-11
-6.58304e-13
-6.19431e-11
-7.3053e-13
-6.11404e-11
-8.01342e-13
-6.02678e-11
-8.71381e-13
-5.93265e-11
-9.40666e-13
-5.83178e-11
-1.00861e-12
-5.72436e-11
-1.07456e-12
-5.61067e-11
-1.13775e-12
-5.49094e-11
-1.19801e-12
-5.36533e-11
-1.25607e-12
-5.23407e-11
-1.31243e-12
-5.09737e-11
-1.36685e-12
-4.95549e-11
-1.41869e-12
-4.80874e-11
-1.46748e-12
-4.65741e-11
-1.51323e-12
-4.50181e-11
-1.55593e-12
-4.34228e-11
-1.59528e-12
-4.17913e-11
-1.63135e-12
-4.01267e-11
-1.66447e-12
-3.84325e-11
-1.69441e-12
-3.67122e-11
-1.72086e-12
-3.49691e-11
-1.74358e-12
-3.32069e-11
-1.76237e-12
-3.143e-11
-1.7769e-12
-2.96433e-11
-1.78667e-12
-2.78509e-11
-1.79201e-12
-2.60565e-11
-1.79395e-12
-2.42634e-11
-1.7928e-12
-2.24754e-11
-1.78766e-12
-2.06977e-11
-1.77741e-12
-1.89358e-11
-1.76168e-12
-1.71944e-11
-1.74121e-12
-1.54773e-11
-1.71696e-12
-1.37884e-11
-1.68876e-12
-1.21325e-11
-1.65564e-12
-1.0515e-11
-1.61708e-12
-8.94092e-12
-1.57356e-12
-7.41427e-12
-1.52596e-12
-5.93944e-12
-1.47452e-12
-4.52072e-12
-1.41864e-12
-3.16237e-12
-1.35799e-12
-1.8697e-12
-1.29263e-12
-6.47262e-13
-1.22264e-12
5.01658e-13
-1.14855e-12
1.573e-12
-1.07083e-12
2.56255e-12
-9.89372e-13
3.46692e-12
-9.04077e-13
4.28251e-12
-8.15219e-13
5.00591e-12
-7.23102e-13
5.63455e-12
-6.28182e-13
6.16593e-12
-5.31117e-13
6.59769e-12
-4.32305e-13
6.92878e-12
-3.31934e-13
7.15867e-12
-2.30514e-13
7.28661e-12
-1.28656e-13
7.31278e-12
-2.68068e-14
7.23867e-12
7.42407e-14
7.06628e-12
1.73059e-13
6.79842e-12
2.68381e-13
6.43954e-12
3.59109e-13
5.99566e-12
4.43698e-13
5.4745e-12
5.20377e-13
4.88635e-12
5.87428e-13
4.2437e-12
6.42516e-13
3.56098e-12
6.82592e-13
2.85702e-12
7.03742e-13
2.15657e-12
7.00535e-13
1.48933e-12
6.66898e-13
8.90028e-13
5.97768e-13
4.00253e-13
4.88968e-13
6.96729e-14
3.35246e-13
-5.54345e-14
1.3766e-13
-4.31704e-14
7.80188e-13
-6.95687e-13
1.32054e-12
-4.71841e-14
1.81745e-12
-5.16198e-13
2.72012e-12
-1.15667e-12
3.93661e-12
-1.72414e-12
5.37419e-12
-2.09775e-12
6.92891e-12
-2.28266e-12
8.5065e-12
-2.31487e-12
1.00264e-11
-2.23047e-12
1.14297e-11
-2.06114e-12
1.26686e-11
-1.82723e-12
1.37083e-11
-1.54706e-12
1.45208e-11
-1.22975e-12
1.50841e-11
-8.83069e-13
1.53826e-11
-5.1652e-13
1.54024e-11
-1.35203e-13
1.51364e-11
2.56462e-13
1.45807e-11
6.54505e-13
1.37311e-11
1.05595e-12
1.25892e-11
1.45697e-12
1.11552e-11
1.85295e-12
9.43349e-12
2.24382e-12
7.43036e-12
2.62775e-12
5.15212e-12
3.00199e-12
2.6064e-12
3.36544e-12
-1.96886e-13
3.71572e-12
-3.24741e-12
4.05094e-12
-6.53501e-12
4.37229e-12
-1.0048e-11
4.67871e-12
-1.37743e-11
4.96763e-12
-1.77013e-11
5.23925e-12
-2.18165e-11
5.4942e-12
-2.61065e-11
5.73132e-12
-3.05566e-11
5.94934e-12
-3.51538e-11
6.14852e-12
-3.98845e-11
6.32943e-12
-4.47339e-11
6.49108e-12
-4.96884e-11
6.63257e-12
-5.4734e-11
6.75547e-12
-5.98565e-11
6.86084e-12
-6.50421e-11
6.94729e-12
-7.02771e-11
7.014e-12
-7.55478e-11
7.06225e-12
-8.08411e-11
7.0928e-12
-8.61434e-11
7.10541e-12
-9.14413e-11
7.10044e-12
-9.67224e-11
7.07852e-12
-1.01975e-10
7.04031e-12
-1.07187e-10
6.98571e-12
-1.12345e-10
6.91421e-12
-1.17438e-10
6.82675e-12
-1.22454e-10
6.72476e-12
-1.27384e-10
6.60838e-12
-1.32215e-10
6.4773e-12
-1.36938e-10
6.33184e-12
-1.41544e-10
6.17342e-12
-1.46022e-10
6.0036e-12
-1.50365e-10
5.82226e-12
-1.54564e-10
5.62834e-12
-1.58609e-10
5.42239e-12
-1.62493e-10
5.2065e-12
-1.6621e-10
4.98142e-12
-1.69751e-10
4.74664e-12
-1.73111e-10
4.5025e-12
-1.76283e-10
4.24996e-12
-1.79262e-10
3.98995e-12
-1.82042e-10
3.7237e-12
-1.84619e-10
3.45147e-12
-1.86988e-10
3.17267e-12
-1.89145e-10
2.88756e-12
-1.91086e-10
2.59744e-12
-1.92807e-10
2.30338e-12
-1.94306e-10
2.00559e-12
-1.9558e-10
1.70406e-12
-1.96627e-10
1.39917e-12
-1.97445e-10
1.09165e-12
-1.98033e-10
7.82341e-13
-1.98392e-10
4.72134e-13
-1.98518e-10
1.61841e-13
-1.98413e-10
-1.48036e-13
-1.98076e-10
-4.57322e-13
-1.9751e-10
-7.65854e-13
-1.96713e-10
-1.07311e-12
-1.95689e-10
-1.37846e-12
-1.94438e-10
-1.68135e-12
-1.92963e-10
-1.98134e-12
-1.91269e-10
-2.27793e-12
-1.89356e-10
-2.57018e-12
-1.8723e-10
-2.85734e-12
-1.84893e-10
-3.13906e-12
-1.82349e-10
-3.41522e-12
-1.79604e-10
-3.68568e-12
-1.76662e-10
-3.94987e-12
-1.73529e-10
-4.20686e-12
-1.70211e-10
-4.45575e-12
-1.66713e-10
-4.69588e-12
-1.63042e-10
-4.92719e-12
-1.59205e-10
-5.14962e-12
-1.55209e-10
-5.36259e-12
-1.51062e-10
-5.56543e-12
-1.46772e-10
-5.75752e-12
-1.42347e-10
-5.93831e-12
-1.37795e-10
-6.10739e-12
-1.33127e-10
-6.26415e-12
-1.28351e-10
-6.40803e-12
-1.23477e-10
-6.53892e-12
-1.18515e-10
-6.6565e-12
-1.13475e-10
-6.76015e-12
-1.0837e-10
-6.84939e-12
-1.03208e-10
-6.92366e-12
-9.80029e-11
-6.98239e-12
-9.27645e-11
-7.02507e-12
-8.7505e-11
-7.05132e-12
-8.22367e-11
-7.06158e-12
-7.69726e-11
-7.05634e-12
-7.17249e-11
-7.03481e-12
-6.65061e-11
-6.99569e-12
-6.13286e-11
-6.93839e-12
-5.62059e-11
-6.86317e-12
-5.11517e-11
-6.77064e-12
-4.61791e-11
-6.66097e-12
-4.1301e-11
-6.53331e-12
-3.65305e-11
-6.38706e-12
-3.18813e-11
-6.22255e-12
-2.73662e-11
-6.04046e-12
-2.29988e-11
-5.84124e-12
-1.87923e-11
-5.6249e-12
-1.47588e-11
-5.39118e-12
-1.09108e-11
-5.14028e-12
-7.26075e-12
-4.87273e-12
-3.81993e-12
-4.58907e-12
-5.99462e-13
-4.29013e-12
2.38928e-12
-3.97691e-12
5.13612e-12
-3.65012e-12
7.63163e-12
-3.31043e-12
9.86701e-12
-2.95903e-12
1.1835e-11
-2.59733e-12
1.35297e-11
-2.2267e-12
1.49455e-11
-1.84883e-12
1.60787e-11
-1.46564e-12
1.69275e-11
-1.0791e-12
1.74913e-11
-6.91831e-13
1.77715e-11
-3.06871e-13
1.77721e-11
7.2918e-14
1.75001e-11
4.44183e-13
1.69657e-11
8.02344e-13
1.61824e-11
1.14233e-12
1.51675e-11
1.45869e-12
1.39428e-11
1.74484e-12
1.25361e-11
1.99329e-12
1.09823e-11
2.19556e-12
9.32316e-12
2.34143e-12
7.60823e-12
2.41849e-12
5.89748e-12
2.41187e-12
4.26216e-12
2.3043e-12
2.7832e-12
2.07771e-12
1.54597e-12
1.71871e-12
6.33393e-13
1.22656e-12
1.1139e-13
6.31671e-13
7.64342e-14
6.65672e-13
-1.36337e-12
2.0147e-12
-1.3983e-12
3.43603e-12
-1.93558e-12
5.11479e-12
-2.83649e-12
7.04076e-12
-3.65005e-12
9.14017e-12
-4.19853e-12
1.13162e-11
-4.45792e-12
1.34661e-11
-4.46559e-12
1.55031e-11
-4.26796e-12
1.7348e-11
-3.90758e-12
1.89376e-11
-3.41867e-12
2.02186e-11
-2.82919e-12
2.11485e-11
-2.16103e-12
2.16943e-11
-1.4303e-12
2.18292e-11
-6.52543e-13
2.15328e-11
1.59898e-13
2.07912e-11
9.9715e-13
1.95951e-11
1.84954e-12
1.79411e-11
2.70956e-12
1.58269e-11
3.56983e-12
1.32549e-11
4.42407e-12
1.02313e-11
5.26725e-12
6.76306e-12
6.09525e-12
2.8612e-12
6.90411e-12
-1.46228e-12
7.6895e-12
-6.19394e-12
8.44795e-12
-1.13181e-11
9.17668e-12
-1.68183e-11
9.87379e-12
-2.26755e-11
1.0537e-11
-2.88711e-11
1.11641e-11
-3.53862e-11
1.17544e-11
-4.21993e-11
1.23073e-11
-4.92895e-11
1.28215e-11
-5.66357e-11
1.32954e-11
-6.42157e-11
1.37285e-11
-7.20068e-11
1.41206e-11
-7.99869e-11
1.44706e-11
-8.81342e-11
1.47786e-11
-9.6426e-11
1.50464e-11
-1.0484e-10
1.52739e-11
-1.13353e-10
1.546e-11
-1.21944e-10
1.56047e-11
-1.3059e-10
1.57088e-11
-1.3927e-10
1.57734e-11
-1.47963e-10
1.57987e-11
-1.56648e-10
1.57854e-11
-1.65303e-10
1.57346e-11
-1.73909e-10
1.56472e-11
-1.82447e-10
1.55234e-11
-1.90896e-10
1.53635e-11
-1.99238e-10
1.51689e-11
-2.07455e-10
1.49411e-11
-2.15529e-10
1.46814e-11
-2.23443e-10
1.43903e-11
-2.3118e-10
1.40688e-11
-2.38726e-10
1.37186e-11
-2.46064e-10
1.33413e-11
-2.53179e-10
1.29374e-11
-2.60058e-10
1.25073e-11
-2.66687e-10
1.20525e-11
-2.73054e-10
1.15745e-11
-2.79147e-10
1.10746e-11
-2.84953e-10
1.05538e-11
-2.90463e-10
1.00132e-11
-2.95667e-10
9.4541e-12
-3.00555e-10
8.87844e-12
-3.05118e-10
8.28774e-12
-3.09348e-10
7.68242e-12
-3.13238e-10
7.06273e-12
-3.16782e-10
6.43022e-12
-3.19972e-10
5.78699e-12
-3.22804e-10
5.1344e-12
-3.25273e-10
4.47324e-12
-3.27375e-10
3.8044e-12
-3.29104e-10
3.12889e-12
-3.3046e-10
2.44793e-12
-3.3144e-10
1.76293e-12
-3.32043e-10
1.07542e-12
-3.32267e-10
3.86596e-13
-3.32112e-10
-3.0257e-13
-3.31579e-10
-9.90881e-13
-3.30668e-10
-1.67692e-12
-3.29383e-10
-2.35942e-12
-3.27725e-10
-3.0374e-12
-3.25696e-10
-3.70986e-12
-3.23301e-10
-4.37561e-12
-3.20543e-10
-5.03348e-12
-3.1743e-10
-5.68227e-12
-3.13965e-10
-6.32075e-12
-3.10156e-10
-6.94788e-12
-3.06008e-10
-7.56272e-12
-3.01529e-10
-8.16427e-12
-2.96729e-10
-8.75116e-12
-2.91615e-10
-9.32154e-12
-2.86196e-10
-9.87422e-12
-2.80482e-10
-1.04086e-11
-2.74485e-10
-1.09239e-11
-2.68216e-10
-1.1419e-11
-2.61686e-10
-1.18927e-11
-2.54907e-10
-1.23437e-11
-2.47894e-10
-1.27712e-11
-2.40658e-10
-1.31738e-11
-2.33215e-10
-1.35504e-11
-2.2558e-10
-1.39001e-11
-2.17767e-10
-1.42217e-11
-2.09792e-10
-1.45141e-11
-2.01673e-10
-1.47767e-11
-1.93425e-10
-1.50083e-11
-1.85066e-10
-1.52081e-11
-1.76614e-10
-1.5375e-11
-1.68089e-10
-1.55079e-11
-1.59507e-10
-1.5606e-11
-1.50889e-10
-1.5669e-11
-1.42254e-10
-1.56963e-11
-1.33623e-10
-1.56877e-11
-1.25015e-10
-1.56423e-11
-1.16452e-10
-1.55587e-11
-1.07954e-10
-1.54363e-11
-9.95412e-11
-1.52752e-11
-9.12361e-11
-1.50753e-11
-8.306e-11
-1.48365e-11
-7.5034e-11
-1.45583e-11
-6.71797e-11
-1.42407e-11
-5.95184e-11
-1.38837e-11
-5.20708e-11
-1.34879e-11
-4.48581e-11
-1.30536e-11
-3.79018e-11
-1.25811e-11
-3.12218e-11
-1.20711e-11
-2.48377e-11
-1.1524e-11
-1.87691e-11
-1.0941e-11
-1.30345e-11
-1.03235e-11
-7.65182e-12
-9.67276e-12
-2.6383e-12
-8.9904e-12
1.99058e-12
-8.27857e-12
6.22001e-12
-7.53953e-12
1.00364e-11
-6.77561e-12
1.34283e-11
-5.98983e-12
1.63863e-11
-5.18548e-12
1.89024e-11
-4.36588e-12
2.09712e-11
-3.53519e-12
2.25901e-11
-2.69836e-12
2.3759e-11
-1.86079e-12
2.44815e-11
-1.02885e-12
2.47647e-11
-2.09825e-13
2.46197e-11
5.88718e-13
2.40629e-11
1.35815e-12
2.31165e-11
2.08796e-12
2.18087e-11
2.76605e-12
2.01741e-11
3.37899e-12
1.82559e-11
3.91136e-12
1.61064e-11
4.34509e-12
1.37881e-11
4.6595e-12
1.13739e-11
4.83156e-12
8.94867e-12
4.83572e-12
6.60932e-12
4.64427e-12
4.46551e-12
4.22874e-12
2.63346e-12
3.56522e-12
1.22165e-12
2.64874e-12
3.12679e-13
1.52697e-12
3.91365e-13
7.29827e-13
-2.08989e-12
2.29436e-12
-2.96489e-12
4.238e-12
-3.88017e-12
6.48099e-12
-5.07918e-12
8.95042e-12
-6.119e-12
1.15474e-11
-6.796e-12
1.41664e-11
-7.0769e-12
1.66998e-11
-6.99789e-12
1.9047e-11
-6.61436e-12
2.11203e-11
-5.98009e-12
2.28441e-11
-5.14188e-12
2.41538e-11
-4.13882e-12
2.49962e-11
-3.00271e-12
2.53287e-11
-1.76232e-12
2.51162e-11
-4.39705e-13
2.4332e-11
9.44198e-13
2.29582e-11
2.37112e-12
2.09818e-11
3.8264e-12
1.83955e-11
5.29609e-12
1.51972e-11
6.76769e-12
1.139e-11
8.23159e-12
6.97944e-12
9.67716e-12
1.97712e-12
1.10971e-11
-3.60332e-12
1.24845e-11
-9.74767e-12
1.38328e-11
-1.6437e-11
1.51362e-11
-2.3651e-11
1.63901e-11
-3.13686e-11
1.75903e-11
-3.95649e-11
1.8733e-11
-4.82152e-11
1.98144e-11
-5.72934e-11
2.08321e-11
-6.67708e-11
2.17846e-11
-7.66195e-11
2.26696e-11
-8.68107e-11
2.34859e-11
-9.73151e-11
2.42328e-11
-1.08103e-10
2.49088e-11
-1.19145e-10
2.55125e-11
-1.3041e-10
2.60442e-11
-1.41867e-10
2.65046e-11
-1.53488e-10
2.68937e-11
-1.65239e-10
2.72116e-11
-1.77093e-10
2.74588e-11
-1.89021e-10
2.7636e-11
-2.00991e-10
2.77439e-11
-2.12976e-10
2.77833e-11
-2.24947e-10
2.77556e-11
-2.36875e-10
2.76624e-11
-2.48733e-10
2.7505e-11
-2.60495e-10
2.72845e-11
-2.72133e-10
2.70019e-11
-2.83623e-10
2.66593e-11
-2.94941e-10
2.62587e-11
-3.0606e-10
2.58017e-11
-3.1696e-10
2.52897e-11
-3.27615e-10
2.4725e-11
-3.38007e-10
2.41102e-11
-3.48112e-10
2.34471e-11
-3.57912e-10
2.27369e-11
-3.67386e-10
2.19816e-11
-3.76517e-10
2.11835e-11
-3.85286e-10
2.03447e-11
-3.93679e-10
1.94674e-11
-4.01679e-10
1.85538e-11
-4.09271e-10
1.76054e-11
-4.16442e-10
1.66247e-11
-4.23178e-10
1.56148e-11
-4.29468e-10
1.45776e-11
-4.353e-10
1.35146e-11
-4.40664e-10
1.24273e-11
-4.45551e-10
1.1318e-11
-4.49953e-10
1.01892e-11
-4.53861e-10
9.04285e-12
-4.5727e-10
7.88126e-12
-4.60172e-10
6.70652e-12
-4.62565e-10
5.52059e-12
-4.64444e-10
4.3256e-12
-4.65806e-10
3.12379e-12
-4.66648e-10
1.91721e-12
-4.66969e-10
7.07848e-13
-4.66769e-10
-5.02195e-13
-4.66049e-10
-1.7107e-12
-4.64809e-10
-2.91547e-12
-4.63053e-10
-4.11464e-12
-4.60784e-10
-5.30632e-12
-4.58006e-10
-6.48822e-12
-4.54723e-10
-7.65798e-12
-4.50943e-10
-8.81375e-12
-4.46672e-10
-9.95386e-12
-4.41916e-10
-1.10761e-11
-4.36684e-10
-1.21784e-11
-4.30988e-10
-1.32588e-11
-4.24836e-10
-1.43154e-11
-4.1824e-10
-1.53463e-11
-4.11212e-10
-1.63491e-11
-4.03764e-10
-1.73217e-11
-3.9591e-10
-1.82624e-11
-3.87665e-10
-1.91691e-11
-3.79044e-10
-2.00397e-11
-3.70064e-10
-2.08728e-11
-3.60741e-10
-2.16665e-11
-3.51094e-10
-2.2419e-11
-3.4114e-10
-2.31281e-11
-3.30899e-10
-2.37917e-11
-3.20392e-10
-2.44078e-11
-3.09639e-10
-2.4975e-11
-2.98662e-10
-2.54911e-11
-2.87484e-10
-2.59549e-11
-2.76128e-10
-2.63648e-11
-2.64617e-10
-2.6719e-11
-2.52976e-10
-2.70159e-11
-2.4123e-10
-2.72537e-11
-2.29405e-10
-2.7431e-11
-2.17527e-10
-2.7547e-11
-2.05623e-10
-2.76007e-11
-1.9372e-10
-2.75908e-11
-1.81845e-10
-2.75164e-11
-1.70027e-10
-2.73762e-11
-1.58295e-10
-2.71688e-11
-1.46675e-10
-2.6894e-11
-1.35199e-10
-2.65515e-11
-1.23894e-10
-2.61409e-11
-1.12789e-10
-2.56622e-11
-1.01914e-10
-2.51153e-11
-9.1298e-11
-2.45e-11
-8.09685e-11
-2.3817e-11
-7.09545e-11
-2.30673e-11
-6.1284e-11
-2.22516e-11
-5.19841e-11
-2.13709e-11
-4.30812e-11
-2.04265e-11
-3.46019e-11
-1.94201e-11
-2.6571e-11
-1.8354e-11
-1.90126e-11
-1.72312e-11
-1.19496e-11
-1.60544e-11
-5.40204e-12
-1.48269e-11
6.11095e-13
-1.35528e-11
6.07167e-12
-1.22365e-11
1.09646e-11
-1.08829e-11
1.52775e-11
-9.49786e-12
1.9e-11
-8.08808e-12
2.21253e-11
-6.66072e-12
2.46508e-11
-5.22412e-12
2.65769e-11
-3.78776e-12
2.7909e-11
-2.36208e-12
2.8658e-11
-9.5904e-13
2.88392e-11
4.07633e-13
2.84741e-11
1.72273e-12
2.75921e-11
2.96922e-12
2.62306e-11
4.12732e-12
2.44352e-11
5.1743e-12
2.22612e-11
6.085e-12
1.97754e-11
6.83107e-12
1.70559e-11
7.37982e-12
1.41926e-11
7.69506e-12
1.12876e-11
7.73857e-12
8.45418e-12
7.47157e-12
5.8186e-12
6.85714e-12
3.51941e-12
5.86468e-12
1.69786e-12
4.48137e-12
4.72437e-13
2.74943e-12
8.63569e-13
6.76485e-13
-2.76639e-12
2.36814e-12
-4.65481e-12
4.61461e-12
-6.12656e-12
7.21263e-12
-7.67666e-12
1.00272e-11
-8.93418e-12
1.29331e-11
-9.70181e-12
1.58052e-11
-9.95017e-12
1.85257e-11
-9.71906e-12
2.09852e-11
-9.07493e-12
2.30869e-11
-8.08236e-12
2.47454e-11
-6.80113e-12
2.58872e-11
-5.28078e-12
2.64513e-11
-3.56787e-12
2.63879e-11
-1.69919e-12
2.56554e-11
2.92163e-13
2.42232e-11
2.37592e-12
2.20682e-11
4.52581e-12
1.91743e-11
6.71989e-12
1.55338e-11
8.93621e-12
1.1144e-11
1.1158e-11
6.00598e-12
1.33692e-11
1.27928e-13
1.55552e-11
-6.47785e-12
1.77034e-11
-1.37959e-11
1.98029e-11
-2.18067e-11
2.18441e-11
-3.04883e-11
2.38181e-11
-3.9816e-11
2.57178e-11
-4.97626e-11
2.75366e-11
-6.02988e-11
2.92689e-11
-7.13943e-11
3.09097e-11
-8.30169e-11
3.24547e-11
-9.51324e-11
3.39001e-11
-1.07706e-10
3.52428e-11
-1.20702e-10
3.64813e-11
-1.34083e-10
3.76136e-11
-1.47814e-10
3.8638e-11
-1.61856e-10
3.9554e-11
-1.76172e-10
4.03608e-11
-1.90725e-10
4.10579e-11
-2.05477e-10
4.16456e-11
-2.2039e-10
4.21243e-11
-2.35426e-10
4.24953e-11
-2.50549e-10
4.27594e-11
-2.65722e-10
4.29175e-11
-2.8091e-10
4.29709e-11
-2.96075e-10
4.29216e-11
-3.11185e-10
4.27716e-11
-3.26203e-10
4.25229e-11
-3.41096e-10
4.21771e-11
-3.55831e-10
4.17368e-11
-3.70377e-10
4.1205e-11
-3.84702e-10
4.0584e-11
-3.98777e-10
3.98761e-11
-4.12571e-10
3.90841e-11
-4.26058e-10
3.82114e-11
-4.39208e-10
3.72609e-11
-4.51997e-10
3.62356e-11
-4.64398e-10
3.51382e-11
-4.76387e-10
3.39717e-11
-4.87943e-10
3.27394e-11
-4.99042e-10
3.14444e-11
-5.09664e-10
3.009e-11
-5.19789e-10
2.86792e-11
-5.29399e-10
2.72153e-11
-5.38476e-10
2.5702e-11
-5.47003e-10
2.41428e-11
-5.54966e-10
2.25404e-11
-5.62351e-10
2.08982e-11
-5.69143e-10
1.92194e-11
-5.75333e-10
1.75073e-11
-5.80909e-10
1.5765e-11
-5.85862e-10
1.39954e-11
-5.90182e-10
1.22019e-11
-5.93863e-10
1.03878e-11
-5.96899e-10
8.55661e-12
-5.99285e-10
6.71159e-12
-6.01017e-10
4.85593e-12
-6.02093e-10
2.99261e-12
-6.0251e-10
1.12479e-12
-6.02269e-10
-7.4401e-13
-6.0137e-10
-2.61029e-12
-5.99814e-10
-4.47092e-12
-5.97605e-10
-6.3231e-12
-5.94747e-10
-8.16388e-12
-5.91245e-10
-9.98975e-12
-5.87105e-10
-1.17971e-11
-5.82336e-10
-1.3583e-11
-5.76946e-10
-1.53445e-11
-5.70943e-10
-1.70789e-11
-5.64338e-10
-1.87827e-11
-5.57144e-10
-2.04526e-11
-5.49374e-10
-2.20853e-11
-5.41041e-10
-2.3678e-11
-5.32161e-10
-2.52278e-11
-5.22751e-10
-2.67318e-11
-5.12826e-10
-2.81867e-11
-5.02406e-10
-2.95895e-11
-4.91509e-10
-3.09366e-11
-4.80156e-10
-3.22255e-11
-4.6837e-10
-3.34536e-11
-4.56171e-10
-3.4618e-11
-4.43584e-10
-3.57157e-11
-4.30633e-10
-3.67435e-11
-4.17344e-10
-3.76983e-11
-4.03741e-10
-3.85776e-11
-3.89854e-10
-3.93788e-11
-3.75709e-10
-4.00994e-11
-3.61337e-10
-4.07371e-11
-3.46767e-10
-4.12892e-11
-3.3203e-10
-4.17531e-11
-3.17157e-10
-4.21267e-11
-3.0218e-10
-4.24078e-11
-2.87133e-10
-4.25946e-11
-2.72048e-10
-4.26856e-11
-2.5696e-10
-4.26788e-11
-2.41904e-10
-4.25724e-11
-2.26915e-10
-4.23653e-11
-2.12027e-10
-4.2056e-11
-1.97277e-10
-4.16434e-11
-1.827e-10
-4.11272e-11
-1.68334e-10
-4.0507e-11
-1.54214e-10
-3.97823e-11
-1.40375e-10
-3.89535e-11
-1.26855e-10
-3.80205e-11
-1.13688e-10
-3.6984e-11
-1.00909e-10
-3.58453e-11
-8.85541e-11
-3.46062e-11
-7.66565e-11
-3.32684e-11
-6.5249e-11
-3.18338e-11
-5.43636e-11
-3.03055e-11
-4.40314e-11
-2.86866e-11
-3.42813e-11
-2.69813e-11
-2.51416e-11
-2.51948e-11
-1.66376e-11
-2.3332e-11
-8.79212e-12
-2.13987e-11
-1.62647e-12
-1.94022e-11
4.84075e-12
-1.73503e-11
1.05947e-11
-1.52515e-11
1.56234e-11
-1.31162e-11
1.99189e-11
-1.0956e-11
2.34779e-11
-8.78338e-12
2.6302e-11
-6.61248e-12
2.83978e-11
-4.4592e-12
2.97789e-11
-2.34136e-12
3.0465e-11
-2.79037e-13
3.0483e-11
1.70475e-12
2.98679e-11
3.58422e-12
2.86641e-11
5.3309e-12
2.69258e-11
6.91249e-12
2.47181e-11
8.29251e-12
2.21177e-11
9.43087e-12
1.9214e-11
1.02833e-11
1.61103e-11
1.08007e-11
1.29222e-11
1.09304e-11
9.77589e-12
1.06197e-11
6.80871e-12
9.82051e-12
4.17419e-12
8.49373e-12
2.04452e-12
6.61609e-12
5.83873e-13
4.21117e-12
1.44686e-12
6.43363e-13
-3.41103e-12
2.37117e-12
-6.38362e-12
4.76094e-12
-8.5177e-12
7.54241e-12
-1.04585e-11
1.05268e-11
-1.19185e-11
1.35605e-11
-1.27361e-11
1.6504e-11
-1.28931e-11
1.92266e-11
-1.24428e-11
2.16123e-11
-1.14605e-11
2.35544e-11
-1.00254e-11
2.49617e-11
-8.20827e-12
2.5754e-11
-6.0734e-12
2.58636e-11
-3.67717e-12
2.52339e-11
-1.06971e-12
2.38207e-11
1.70492e-12
2.15891e-11
4.60779e-12
1.85113e-11
7.6033e-12
1.45705e-11
1.06599e-11
9.75723e-12
1.37498e-11
4.06726e-12
1.68475e-11
-2.49574e-12
1.99317e-11
-9.92327e-12
2.29829e-11
-1.82029e-11
2.59823e-11
-2.73161e-11
2.89155e-11
-3.72401e-11
3.17683e-11
-4.79507e-11
3.45284e-11
-5.94182e-11
3.71852e-11
-7.16109e-11
3.97291e-11
-8.44951e-11
4.21525e-11
-9.80341e-11
4.44486e-11
-1.1219e-10
4.66109e-11
-1.26924e-10
4.8634e-11
-1.42196e-10
5.05142e-11
-1.57962e-10
5.2248e-11
-1.7418e-10
5.38318e-11
-1.90807e-10
5.52643e-11
-2.07798e-10
5.65445e-11
-2.25108e-10
5.76714e-11
-2.42695e-10
5.86441e-11
-2.60512e-10
5.94625e-11
-2.78515e-10
6.01279e-11
-2.96661e-10
6.0641e-11
-3.14905e-10
6.1003e-11
-3.33203e-10
6.12154e-11
-3.51512e-10
6.12805e-11
-3.69791e-10
6.12007e-11
-3.87998e-10
6.09785e-11
-4.06092e-10
6.06162e-11
-4.24031e-10
6.01169e-11
-4.41779e-10
5.94845e-11
-4.59296e-10
5.87223e-11
-4.76545e-10
5.78335e-11
-4.93491e-10
5.68217e-11
-5.10098e-10
5.56913e-11
-5.26333e-10
5.44465e-11
-5.42164e-10
5.30911e-11
-5.57558e-10
5.16292e-11
-5.72484e-10
5.00652e-11
-5.86915e-10
4.84034e-11
-6.00824e-10
4.66483e-11
-6.14184e-10
4.48043e-11
-6.26969e-10
4.28757e-11
-6.39157e-10
4.08669e-11
-6.50724e-10
3.8783e-11
-6.61651e-10
3.6629e-11
-6.71917e-10
3.44092e-11
-6.81504e-10
3.21277e-11
-6.90394e-10
2.97892e-11
-6.98574e-10
2.73987e-11
-7.06028e-10
2.49609e-11
-7.12743e-10
2.24802e-11
-7.1871e-10
1.99609e-11
-7.23916e-10
1.74077e-11
-7.28354e-10
1.48252e-11
-7.32016e-10
1.22184e-11
-7.34896e-10
9.59178e-12
-7.36989e-10
6.94986e-12
-7.38293e-10
4.29688e-12
-7.38806e-10
1.63746e-12
-7.38526e-10
-1.0234e-12
-7.37456e-10
-3.68098e-12
-7.35596e-10
-6.33093e-12
-7.3295e-10
-8.96886e-12
-7.29524e-10
-1.15903e-11
-7.25323e-10
-1.41905e-11
-7.20355e-10
-1.67649e-11
-7.14629e-10
-1.93088e-11
-7.08156e-10
-2.18181e-11
-7.00946e-10
-2.42884e-11
-6.93012e-10
-2.67156e-11
-6.8437e-10
-2.9095e-11
-6.75033e-10
-3.14217e-11
-6.65019e-10
-3.36914e-11
-6.54345e-10
-3.59e-11
-6.43033e-10
-3.80436e-11
-6.31102e-10
-4.01176e-11
-6.18574e-10
-4.21174e-11
-6.05472e-10
-4.40388e-11
-5.9182e-10
-4.58775e-11
-5.77645e-10
-4.76297e-11
-5.62973e-10
-4.92911e-11
-5.47831e-10
-5.08575e-11
-5.32251e-10
-5.23249e-11
-5.16261e-10
-5.36889e-11
-4.99893e-10
-5.49459e-11
-4.8318e-10
-5.60924e-11
-4.66154e-10
-5.71247e-11
-4.48852e-10
-5.80394e-11
-4.31308e-10
-5.88327e-11
-4.13561e-10
-5.95012e-11
-3.95646e-10
-6.00418e-11
-3.77602e-10
-6.04517e-11
-3.59469e-10
-6.07283e-11
-3.41286e-10
-6.0869e-11
-3.23093e-10
-6.08713e-11
-3.04933e-10
-6.07327e-11
-2.86847e-10
-6.04513e-11
-2.68876e-10
-6.0026e-11
-2.51063e-10
-5.94553e-11
-2.33451e-10
-5.87382e-11
-2.16084e-10
-5.78743e-11
-1.99003e-10
-5.68631e-11
-1.82251e-10
-5.57048e-11
-1.65871e-10
-5.44001e-11
-1.49905e-10
-5.29499e-11
-1.34394e-10
-5.13558e-11
-1.19379e-10
-4.96204e-11
-1.04901e-10
-4.77464e-11
-9.09976e-11
-4.5737e-11
-7.7707e-11
-4.35962e-11
-6.50652e-11
-4.13291e-11
-5.31061e-11
-3.89412e-11
-4.1862e-11
-3.64393e-11
-3.1363e-11
-3.38313e-11
-2.16362e-11
-3.11256e-11
-1.27059e-11
-2.83321e-11
-4.59342e-12
-2.54622e-11
2.68386e-12
-2.25286e-11
9.11246e-12
-1.95451e-11
1.46838e-11
-1.65277e-11
1.93947e-11
-1.34945e-11
2.32466e-11
-1.04651e-11
2.6248e-11
-7.46144e-12
2.84143e-11
-4.50829e-12
2.97681e-11
-1.6335e-12
3.03405e-11
1.13188e-12
3.0172e-11
3.75288e-12
2.93126e-11
6.19063e-12
2.78227e-11
8.40219e-12
2.57752e-11
1.03399e-11
2.32544e-11
1.19511e-11
2.03572e-11
1.31785e-11
1.71948e-11
1.39607e-11
1.38936e-11
1.42321e-11
1.05921e-11
1.3925e-11
7.439e-12
1.29753e-11
4.59951e-12
1.13293e-11
2.26868e-12
8.94766e-12
6.52737e-13
5.8282e-12
2.09923e-12
6.23239e-13
-4.03267e-12
2.33435e-12
-8.09646e-12
4.75318e-12
-1.09357e-11
7.57384e-12
-1.32792e-11
1.05733e-11
-1.4919e-11
1.35762e-11
-1.57384e-11
1.64263e-11
-1.57432e-11
1.89847e-11
-1.50011e-11
2.11259e-11
-1.36024e-11
2.27391e-11
-1.16386e-11
2.37259e-11
-9.19567e-12
2.40025e-11
-6.35018e-12
2.34954e-11
-3.17027e-12
2.2145e-11
2.80122e-13
1.99033e-11
3.94676e-12
1.67311e-11
7.77976e-12
1.26008e-11
1.17335e-11
7.49277e-12
1.57681e-11
1.39527e-12
1.98474e-11
-5.69487e-12
2.39376e-11
-1.37738e-11
2.80109e-11
-2.28319e-11
3.20414e-11
-3.28548e-11
3.60052e-11
-4.38217e-11
3.98823e-11
-5.57079e-11
4.36543e-11
-6.84851e-11
4.73052e-11
-8.21204e-11
5.08204e-11
-9.65784e-11
5.41869e-11
-1.11821e-10
5.73945e-11
-1.27806e-10
6.04335e-11
-1.44491e-10
6.32952e-11
-1.6183e-10
6.59734e-11
-1.79778e-10
6.84623e-11
-1.98288e-10
7.07568e-11
-2.17309e-10
7.28527e-11
-2.36792e-10
7.47475e-11
-2.56687e-10
7.64395e-11
-2.76942e-10
7.79271e-11
-2.97508e-10
7.92095e-11
-3.18332e-10
8.0287e-11
-3.39364e-10
8.11603e-11
-3.60554e-10
8.18305e-11
-3.81849e-10
8.22989e-11
-4.03202e-10
8.25677e-11
-4.24562e-10
8.26401e-11
-4.4588e-10
8.25189e-11
-4.67109e-10
8.22072e-11
-4.88201e-10
8.17082e-11
-5.0911e-10
8.10266e-11
-5.29792e-10
8.01669e-11
-5.50203e-10
7.9133e-11
-5.70299e-10
7.79297e-11
-5.90039e-10
7.6562e-11
-6.09383e-10
7.50355e-11
-6.28292e-10
7.33556e-11
-6.46728e-10
7.15273e-11
-6.64655e-10
6.95562e-11
-6.82038e-10
6.7448e-11
-6.98843e-10
6.52088e-11
-7.1504e-10
6.28446e-11
-7.30596e-10
6.0361e-11
-7.45483e-10
5.77635e-11
-7.59675e-10
5.50586e-11
-7.73145e-10
5.2253e-11
-7.85869e-10
4.93528e-11
-7.97824e-10
4.63639e-11
-8.08988e-10
4.32922e-11
-8.19343e-10
4.01441e-11
-8.2887e-10
3.6926e-11
-8.37553e-10
3.36439e-11
-8.45377e-10
3.03039e-11
-8.52328e-10
2.69123e-11
-8.58395e-10
2.34751e-11
-8.63569e-10
1.99986e-11
-8.6784e-10
1.64893e-11
-8.71202e-10
1.29533e-11
-8.73649e-10
9.3963e-12
-8.75177e-10
5.82455e-12
-8.75784e-10
2.2444e-12
-8.75469e-10
-1.33771e-12
-8.74234e-10
-4.91579e-12
-8.72081e-10
-8.48404e-12
-8.69013e-10
-1.20363e-11
-8.65037e-10
-1.55661e-11
-8.60161e-10
-1.90674e-11
-8.54392e-10
-2.25343e-11
-8.4774e-10
-2.59607e-11
-8.40218e-10
-2.93405e-11
-8.31838e-10
-3.26678e-11
-8.22616e-10
-3.59369e-11
-8.12569e-10
-3.91418e-11
-8.01713e-10
-4.22764e-11
-7.9007e-10
-4.53348e-11
-7.77658e-10
-4.83113e-11
-7.64501e-10
-5.12003e-11
-7.50623e-10
-5.39954e-11
-7.3605e-10
-5.66909e-11
-7.20808e-10
-5.92814e-11
-7.04925e-10
-6.17611e-11
-6.8843e-10
-6.41245e-11
-6.71356e-10
-6.63661e-11
-6.53734e-10
-6.848e-11
-6.35598e-10
-7.0461e-11
-6.16984e-10
-7.23036e-11
-5.97928e-10
-7.40028e-11
-5.78466e-10
-7.5554e-11
-5.58639e-10
-7.69523e-11
-5.38486e-10
-7.81927e-11
-5.18048e-10
-7.92706e-11
-4.97368e-10
-8.01814e-11
-4.76489e-10
-8.09209e-11
-4.55456e-10
-8.14857e-11
-4.34313e-10
-8.1872e-11
-4.13105e-10
-8.20763e-11
-3.91881e-10
-8.20953e-11
-3.70687e-10
-8.19263e-11
-3.49572e-10
-8.15665e-11
-3.28583e-10
-8.10142e-11
-3.07769e-10
-8.02681e-11
-2.8718e-10
-7.93267e-11
-2.66865e-10
-7.81893e-11
-2.46872e-10
-7.68555e-11
-2.27251e-10
-7.53255e-11
-2.08051e-10
-7.36003e-11
-1.89318e-10
-7.16817e-11
-1.71102e-10
-6.95721e-11
-1.53447e-10
-6.72743e-11
-1.36401e-10
-6.47922e-11
-1.20007e-10
-6.21306e-11
-1.04308e-10
-5.9295e-11
-8.93456e-11
-5.62921e-11
-7.51578e-11
-5.31296e-11
-6.17811e-11
-4.98165e-11
-4.92492e-11
-4.63632e-11
-3.75932e-11
-4.27813e-11
-2.68406e-11
-3.90844e-11
-1.70151e-11
-3.52874e-11
-8.13611e-12
-3.14072e-11
-2.1868e-13
-2.74628e-11
6.72753e-12
-2.3475e-11
1.26992e-11
-1.94669e-11
1.76986e-11
-1.54649e-11
2.17348e-11
-1.14981e-11
2.48249e-11
-7.59865e-12
2.6994e-11
-3.80264e-12
2.82759e-11
-1.50355e-13
2.87148e-11
3.31359e-12
2.83653e-11
6.54005e-12
2.72928e-11
9.47471e-12
2.55752e-11
1.20577e-11
2.33031e-11
1.42236e-11
2.05798e-11
1.59019e-11
1.75214e-11
1.70173e-11
1.42605e-11
1.7491e-11
1.09453e-11
1.72411e-11
7.73734e-12
1.61861e-11
4.81357e-12
1.42519e-11
2.38457e-12
1.1376e-11
6.87298e-13
7.52553e-12
2.78629e-12
6.00883e-13
-4.63299e-12
2.25699e-12
-9.75216e-12
4.61454e-12
-1.32941e-11
7.35657e-12
-1.60201e-11
1.02392e-11
-1.78023e-11
1.30689e-11
-1.85692e-11
1.56799e-11
-1.83541e-11
1.79241e-11
-1.72457e-11
1.96708e-11
-1.53492e-11
2.08026e-11
-1.2771e-11
2.12188e-11
-9.61154e-12
2.08296e-11
-5.96123e-12
1.9561e-11
-1.90194e-12
1.73494e-11
2.49197e-12
1.41433e-11
7.15269e-12
9.90306e-12
1.20197e-11
4.59927e-12
1.70373e-11
-1.78861e-12
2.21563e-11
-9.273e-12
2.73312e-11
-1.78565e-11
3.25214e-11
-2.75362e-11
3.76902e-11
-3.83004e-11
4.28054e-11
-5.01327e-11
4.78377e-11
-6.30109e-11
5.27603e-11
-7.69074e-11
5.75506e-11
-9.17903e-11
6.21878e-11
-1.07624e-10
6.66534e-11
-1.24368e-10
7.09315e-11
-1.41981e-10
7.50077e-11
-1.60418e-10
7.88696e-11
-1.79629e-10
8.25066e-11
-1.99566e-10
8.59099e-11
-2.20175e-10
8.9072e-11
-2.41405e-10
9.19863e-11
-2.63201e-10
9.46481e-11
-2.85507e-10
9.70536e-11
-3.08267e-10
9.91995e-11
-3.31424e-10
1.01084e-10
-3.54921e-10
1.02707e-10
-3.78701e-10
1.04067e-10
-4.02707e-10
1.05166e-10
-4.26882e-10
1.06005e-10
-4.51169e-10
1.06586e-10
-4.75512e-10
1.06911e-10
-4.99857e-10
1.06984e-10
-5.24147e-10
1.06809e-10
-5.48329e-10
1.06389e-10
-5.72351e-10
1.0573e-10
-5.9616e-10
1.04836e-10
-6.19705e-10
1.03713e-10
-6.42938e-10
1.02366e-10
-6.65811e-10
1.00802e-10
-6.88275e-10
9.90265e-11
-7.10286e-10
9.70468e-11
-7.31801e-10
9.48697e-11
-7.52775e-10
9.25016e-11
-7.73168e-10
8.99499e-11