/*--------------------------------*- C++ -*----------------------------------*\
  =========                 |
  \\      /  F ield         | OpenFOAM: The Open Source CFD Toolbox
   \\    /   O peration     | Website:  https://openfoam.org
    \\  /    A nd           | Version:  7
     \\/     M anipulation  |
\*---------------------------------------------------------------------------*/
FoamFile
{
    version     2.0;
    format      ascii;
    class       volScalarField;
    location    "0.475";
    object      p;
}
// * * * * * * * * * * * * * * * * * * * * * * * * * * * * * * * * * * * * * //

dimensions      [0 2 -2 0 0 0 0];

internalField   nonuniform List<scalar> 
51200
(
-1.57857e-06
-3.13272e-06
-1.89342e-06
1.46039e-06
6.54757e-06
1.29518e-05
2.05347e-05
2.89267e-05
3.79606e-05
4.73803e-05
5.6971e-05
6.65716e-05
7.60406e-05
8.5269e-05
9.41499e-05
0.0001026
0.000110468
0.000117736
0.000124317
0.000130189
0.000135264
0.000139511
0.000142904
0.000145394
0.00014697
0.00014763
0.000147348
0.000146112
0.0001439
0.00014072
0.000136597
0.000131525
0.000125481
0.000118478
0.000110526
0.000101642
9.18356e-05
8.10882e-05
6.94298e-05
5.68965e-05
4.34942e-05
2.92355e-05
1.41341e-05
-1.79283e-06
-1.85225e-05
-3.60324e-05
-5.43073e-05
-7.33339e-05
-9.30927e-05
-0.000113554
-0.000134689
-0.000156478
-0.000178906
-0.000201959
-0.000225614
-0.000249836
-0.000274598
-0.000299885
-0.000325681
-0.000351964
-0.000378711
-0.000405895
-0.000433492
-0.000461483
-0.000489849
-0.000518568
-0.000547616
-0.000576968
-0.000606597
-0.000636478
-0.000666589
-0.00069691
-0.000727426
-0.00075811
-0.000788931
-0.000819863
-0.000850891
-0.000881998
-0.00091316
-0.00094435
-0.000975552
-0.00100675
-0.00103791
-0.00106902
-0.00110005
-0.00113098
-0.00116179
-0.00119246
-0.00122296
-0.00125327
-0.00128336
-0.00131323
-0.00134283
-0.00137215
-0.00140116
-0.00142985
-0.00145821
-0.00148621
-0.00151382
-0.00154101
-0.00156777
-0.00159406
-0.00161986
-0.00164515
-0.00166992
-0.00169414
-0.00171778
-0.00174081
-0.00176321
-0.00178497
-0.00180606
-0.00182646
-0.00184615
-0.0018651
-0.0018833
-0.00190073
-0.00191737
-0.00193319
-0.0019482
-0.00196236
-0.00197565
-0.00198807
-0.0019996
-0.00201024
-0.00201996
-0.00202876
-0.00203662
-0.00204353
-0.0020495
-0.00205449
-0.00205852
-0.00206157
-0.00206367
-0.00206483
-0.00206503
-0.00206429
-0.00206264
-0.0020601
-0.00205669
-0.00205243
-0.00204735
-0.0020415
-0.00203492
-0.00202767
-0.00201981
-0.00201142
-0.00200258
-0.00199341
-0.001984
-0.00197449
-0.00196503
-0.00195578
-0.00194693
-0.00193871
-0.00193139
-0.00192523
-0.00192053
-0.00191753
-0.00191647
-0.00191706
-1.91453e-06
-2.46579e-06
-1.14589e-06
1.86951e-06
6.29171e-06
1.19131e-05
1.8505e-05
2.58599e-05
3.37972e-05
4.20421e-05
5.05061e-05
5.90645e-05
6.7473e-05
7.56893e-05
8.36421e-05
9.11839e-05
9.82152e-05
0.000104717
0.000110585
0.000115748
0.000120187
0.000123885
0.000126782
0.000128806
0.000129968
0.00013028
0.000129695
0.000128184
0.000125746
0.000122395
0.000118141
0.000112967
0.000106857
9.9832e-05
9.19047e-05
8.30629e-05
7.33165e-05
6.26725e-05
5.11456e-05
3.87751e-05
2.5567e-05
1.15139e-05
-3.35996e-06
-1.90289e-05
-3.54743e-05
-5.26787e-05
-7.06391e-05
-8.93414e-05
-0.000108753
-0.000128844
-0.000149594
-0.00017099
-0.000193016
-0.000215649
-0.000238867
-0.00026264
-0.000286946
-0.000311769
-0.000337095
-0.000362902
-0.000389164
-0.000415852
-0.000442939
-0.000470415
-0.000498268
-0.000526479
-0.000555013
-0.000583835
-0.000612923
-0.000642262
-0.000671833
-0.000701615
-0.000731587
-0.000761728
-0.000792009
-0.000822394
-0.000852862
-0.000883403
-0.000914008
-0.000944653
-0.000975308
-0.00100595
-0.00103656
-0.00106711
-0.00109758
-0.00112795
-0.00115821
-0.00118834
-0.0012183
-0.00124807
-0.00127762
-0.00130694
-0.001336
-0.00136479
-0.00139328
-0.00142145
-0.00144929
-0.00147678
-0.00150388
-0.00153057
-0.00155683
-0.00158264
-0.00160798
-0.0016328
-0.00165711
-0.00168087
-0.00170408
-0.00172668
-0.00174868
-0.00177003
-0.00179074
-0.00181077
-0.0018301
-0.00184872
-0.00186659
-0.00188373
-0.00190009
-0.00191567
-0.00193043
-0.00194437
-0.00195747
-0.00196974
-0.00198114
-0.00199167
-0.00200132
-0.00201008
-0.00201794
-0.00202487
-0.00203089
-0.00203598
-0.00204015
-0.00204339
-0.00204571
-0.00204712
-0.00204764
-0.00204727
-0.00204603
-0.00204395
-0.00204106
-0.00203737
-0.00203291
-0.00202772
-0.00202187
-0.00201541
-0.0020084
-0.00200091
-0.00199303
-0.00198485
-0.00197649
-0.00196806
-0.00195969
-0.00195155
-0.00194381
-0.00193667
-0.00193032
-0.00192497
-0.00192084
-0.00191813
-0.00191709
-0.00191768
-2.80623e-06
-3.2839e-06
-1.98036e-06
7.95962e-07
4.86065e-06
9.92323e-06
1.58512e-05
2.25062e-05
2.96321e-05
3.71175e-05
4.47648e-05
5.24502e-05
6.0088e-05
6.75723e-05
7.47573e-05
8.15692e-05
8.79589e-05
9.38392e-05
9.91264e-05
0.000103751
0.000107699
0.00011093
0.000113384
0.000115028
0.000115867
0.000115886
0.000115034
0.000113287
0.000110669
0.000107176
0.000102802
9.75279e-05
9.13545e-05
8.43056e-05
7.63882e-05
6.75801e-05
5.78758e-05
4.73099e-05
3.58953e-05
2.36482e-05
1.05887e-05
-3.29378e-06
-1.79804e-05
-3.34383e-05
-4.96556e-05
-6.66193e-05
-8.43231e-05
-0.000102755
-0.000121878
-0.000141659
-0.000162087
-0.000183156
-0.00020485
-0.00022714
-0.000249996
-0.000273395
-0.00029732
-0.000321758
-0.000346691
-0.000372097
-0.000397949
-0.00042422
-0.000450888
-0.000477939
-0.000505359
-0.000533132
-0.000561228
-0.000589609
-0.000618249
-0.000647135
-0.000676257
-0.000705589
-0.000735102
-0.000764774
-0.000794587
-0.000824514
-0.000854526
-0.000884603
-0.000914734
-0.000944908
-0.000975098
-0.00100527
-0.00103541
-0.00106549
-0.00109551
-0.00112542
-0.00115522
-0.00118487
-0.00121437
-0.00124369
-0.00127279
-0.00130166
-0.00133026
-0.0013586
-0.00138665
-0.00141438
-0.00144179
-0.00146885
-0.00149553
-0.00152181
-0.00154765
-0.00157305
-0.00159798
-0.00162242
-0.00164636
-0.00166975
-0.00169258
-0.00171484
-0.00173649
-0.00175751
-0.0017779
-0.00179763
-0.00181667
-0.00183501
-0.00185262
-0.0018695
-0.00188563
-0.00190101
-0.00191558
-0.00192935
-0.0019423
-0.00195444
-0.00196574
-0.00197619
-0.00198578
-0.00199452
-0.00200237
-0.00200935
-0.00201542
-0.00202059
-0.00202487
-0.00202828
-0.00203079
-0.00203243
-0.00203321
-0.00203314
-0.00203224
-0.00203055
-0.00202807
-0.00202483
-0.00202088
-0.00201625
-0.00201098
-0.00200514
-0.0019988
-0.00199202
-0.00198487
-0.00197746
-0.00196989
-0.00196228
-0.00195473
-0.00194738
-0.0019404
-0.00193397
-0.00192826
-0.00192343
-0.00191964
-0.00191708
-0.00191603
-0.00191665
-5.44353e-06
-5.66958e-06
-4.33193e-06
-1.54586e-06
2.28156e-06
7.06469e-06
1.26104e-05
1.87392e-05
2.53331e-05
3.22316e-05
3.92812e-05
4.63642e-05
5.3401e-05
6.02889e-05
6.688e-05
7.31442e-05
7.89906e-05
8.43363e-05
8.9127e-05
9.33082e-05
9.68435e-05
9.96751e-05
0.000101765
0.000103098
0.000103654
0.0001034
0.000102306
0.000100357
9.75801e-05
9.39631e-05
8.9473e-05
8.4111e-05
7.78852e-05
7.08106e-05
6.28848e-05
5.40835e-05
4.44159e-05
3.39169e-05
2.25953e-05
1.0453e-05
-2.49228e-06
-1.62356e-05
-3.07579e-05
-4.60352e-05
-6.20588e-05
-7.88216e-05
-9.63103e-05
-0.000114505
-0.000133374
-0.000152893
-0.000173051
-0.00019384
-0.000215243
-0.00023723
-0.000259769
-0.000282842
-0.000306437
-0.000330542
-0.000355135
-0.00038019
-0.00040568
-0.000431581
-0.00045788
-0.000484563
-0.000511612
-0.000539001
-0.000566704
-0.000594692
-0.00062294
-0.000651428
-0.000680149
-0.000709084
-0.000738205
-0.000767477
-0.000796875
-0.000826382
-0.000855982
-0.000885653
-0.000915377
-0.000945138
-0.000974916
-0.00100468
-0.00103441
-0.00106407
-0.00109367
-0.00112318
-0.00115257
-0.00118183
-0.00121092
-0.00123983
-0.00126853
-0.00129699
-0.00132521
-0.00135315
-0.00138081
-0.00140817
-0.00143519
-0.00146187
-0.00148818
-0.00151409
-0.00153958
-0.00156462
-0.00158921
-0.00161331
-0.00163691
-0.00165997
-0.00168249
-0.00170444
-0.0017258
-0.00174654
-0.00176665
-0.0017861
-0.00180489
-0.00182299
-0.00184039
-0.00185706
-0.001873
-0.00188819
-0.0019026
-0.00191623
-0.00192906
-0.0019411
-0.00195231
-0.0019627
-0.00197226
-0.00198097
-0.00198883
-0.00199583
-0.00200197
-0.00200722
-0.00201162
-0.00201516
-0.00201784
-0.00201967
-0.00202068
-0.00202087
-0.00202028
-0.00201891
-0.00201678
-0.00201393
-0.0020104
-0.00200623
-0.00200145
-0.00199612
-0.00199032
-0.0019841
-0.00197755
-0.00197075
-0.00196378
-0.00195676
-0.0019498
-0.00194303
-0.0019366
-0.00193064
-0.0019253
-0.00192072
-0.00191707
-0.00191452
-0.0019133
-0.00191365
-9.83593e-06
-9.47972e-06
-7.80734e-06
-4.96638e-06
-1.17496e-06
3.46414e-06
8.74171e-06
1.45039e-05
2.06948e-05
2.71166e-05
3.36854e-05
4.02752e-05
4.68103e-05
5.31719e-05
5.92514e-05
6.5043e-05
7.04019e-05
7.52663e-05
7.9622e-05
8.33988e-05
8.65452e-05
8.90013e-05
9.07543e-05
9.17997e-05
9.20892e-05
9.15811e-05
9.02615e-05
8.81371e-05
8.52069e-05
8.14521e-05
7.68439e-05
7.13985e-05
6.51246e-05
5.80125e-05
5.00675e-05
4.12727e-05
3.16359e-05
2.11956e-05
9.95675e-06
-2.08907e-06
-1.49293e-05
-2.85477e-05
-4.29201e-05
-5.80308e-05
-7.38766e-05
-9.0453e-05
-0.00010774
-0.000125709
-0.000144339
-0.000163614
-0.000183522
-0.000204048
-0.000225173
-0.000246869
-0.00026911
-0.000291877
-0.000315161
-0.000338948
-0.000363215
-0.000387935
-0.00041308
-0.00043863
-0.000464577
-0.000490909
-0.000517602
-0.000544626
-0.000571954
-0.000599564
-0.000627435
-0.000655549
-0.00068389
-0.00071244
-0.000741175
-0.000770062
-0.000799069
-0.000828179
-0.000857381
-0.000886661
-0.000915997
-0.000945364
-0.000974741
-0.00100411
-0.00103344
-0.00106271
-0.00109192
-0.00112103
-0.00115004
-0.00117891
-0.00120761
-0.00123613
-0.00126444
-0.00129253
-0.00132036
-0.00134793
-0.00137522
-0.00140221
-0.00142888
-0.00145519
-0.00148115
-0.0015067
-0.00153185
-0.00155656
-0.00158081
-0.00160459
-0.00162787
-0.00165064
-0.00167285
-0.00169451
-0.00171558
-0.00173606
-0.00175591
-0.00177511
-0.00179366
-0.00181154
-0.00182873
-0.00184521
-0.00186097
-0.00187599
-0.00189025
-0.00190375
-0.00191647
-0.00192841
-0.00193956
-0.00194989
-0.00195942
-0.00196812
-0.00197599
-0.00198302
-0.00198921
-0.00199456
-0.00199906
-0.00200273
-0.00200558
-0.0020076
-0.00200882
-0.00200926
-0.00200894
-0.00200788
-0.00200608
-0.00200359
-0.00200044
-0.00199668
-0.00199235
-0.00198749
-0.00198216
-0.00197643
-0.00197038
-0.0019641
-0.00195765
-0.00195114
-0.00194465
-0.00193832
-0.00193227
-0.00192663
-0.00192153
-0.0019171
-0.00191345
-0.00191076
-0.00190919
-0.00190892
-1.57614e-05
-1.45456e-05
-1.24029e-05
-9.31437e-06
-5.38762e-06
-8.1975e-07
4.30936e-06
9.90294e-06
1.57768e-05
2.18315e-05
2.80308e-05
3.42485e-05
4.03298e-05
4.62448e-05
5.19193e-05
5.72712e-05
6.22142e-05
6.6682e-05
7.06551e-05
7.40528e-05
7.68305e-05
7.8958e-05
8.04194e-05
8.11955e-05
8.12166e-05
8.04667e-05
7.89455e-05
7.66534e-05
7.35743e-05
6.96796e-05
6.49613e-05
5.94397e-05
5.3119e-05
4.59747e-05
3.80004e-05
2.92041e-05
1.95942e-05
9.19759e-06
-1.97643e-06
-1.39379e-05
-2.66778e-05
-4.01734e-05
-5.44049e-05
-6.9365e-05
-8.5052e-05
-0.000101459
-0.000118559
-0.000136319
-0.000154725
-0.000173771
-0.000193444
-0.000213725
-0.00023459
-0.000256013
-0.000277972
-0.000300454
-0.000323447
-0.000346934
-0.00037089
-0.000395291
-0.000420111
-0.000445334
-0.000470948
-0.000496943
-0.000523297
-0.000549975
-0.00057695
-0.000604202
-0.000631716
-0.000659473
-0.000687453
-0.000715636
-0.000744001
-0.00077252
-0.000801158
-0.000829893
-0.000858718
-0.000887623
-0.000916585
-0.000945576
-0.000974574
-0.00100356
-0.00103252
-0.00106142
-0.00109025
-0.00111899
-0.00114762
-0.00117612
-0.00120447
-0.00123262
-0.00126056
-0.00128828
-0.00131576
-0.00134297
-0.0013699
-0.00139654
-0.00142287
-0.00144886
-0.00147447
-0.00149969
-0.00152451
-0.0015489
-0.00157285
-0.00159632
-0.0016193
-0.00164177
-0.00166371
-0.00168509
-0.0017059
-0.00172612
-0.00174573
-0.00176471
-0.00178303
-0.0018007
-0.00181769
-0.001834
-0.0018496
-0.00186446
-0.00187859
-0.00189197
-0.0019046
-0.00191645
-0.00192753
-0.00193782
-0.00194732
-0.00195602
-0.0019639
-0.00197096
-0.00197721
-0.00198264
-0.00198725
-0.00199105
-0.00199405
-0.00199625
-0.00199767
-0.00199835
-0.00199828
-0.00199749
-0.001996
-0.00199384
-0.00199104
-0.00198764
-0.00198369
-0.00197924
-0.00197434
-0.00196904
-0.00196342
-0.00195757
-0.00195154
-0.00194542
-0.00193931
-0.00193331
-0.00192754
-0.0019221
-0.0019171
-0.00191264
-0.00190889
-0.00190591
-0.00190384
-0.00190274
-2.28332e-05
-2.06882e-05
-1.79041e-05
-1.44297e-05
-1.03126e-05
-5.64423e-06
-5.14631e-07
4.96464e-06
1.06345e-05
1.64837e-05
2.23889e-05
2.82822e-05
3.4038e-05
3.96147e-05
4.49389e-05
4.99039e-05
5.44751e-05
5.86051e-05
6.22402e-05
6.53018e-05
6.77618e-05
6.96087e-05
7.08072e-05
7.13209e-05
7.11034e-05
7.01393e-05
6.84378e-05
6.5981e-05
6.2748e-05
5.8721e-05
5.38999e-05
4.83076e-05
4.19308e-05
3.47452e-05
2.67464e-05
1.79548e-05
8.37539e-06
-1.98362e-06
-1.31119e-05
-2.50068e-05
-3.76578e-05
-5.10433e-05
-6.51525e-05
-7.99821e-05
-9.55251e-05
-0.000111768
-0.000128688
-0.000146258
-0.000164464
-0.000183303
-0.00020276
-0.000222813
-0.000243434
-0.0002646
-0.000286297
-0.000308515
-0.000331239
-0.000354447
-0.000378112
-0.00040221
-0.000426724
-0.000451644
-0.000476953
-0.000502635
-0.000528665
-0.000555016
-0.000581658
-0.000608572
-0.000635745
-0.000663168
-0.000690816
-0.00071866
-0.000746674
-0.000774836
-0.000803122
-0.000831508
-0.000859982
-0.000888533
-0.000917141
-0.000945781
-0.000974424
-0.00100305
-0.00103165
-0.0010602
-0.00108868
-0.00111707
-0.00114535
-0.0011735
-0.0012015
-0.0012293
-0.0012569
-0.00128428
-0.00131142
-0.0013383
-0.00136491
-0.00139122
-0.00141721
-0.00144288
-0.00146818
-0.00149309
-0.0015176
-0.0015417
-0.00156535
-0.00158854
-0.00161125
-0.00163345
-0.00165512
-0.00167625
-0.00169682
-0.0017168
-0.00173618
-0.00175494
-0.00177307
-0.00179054
-0.00180736
-0.0018235
-0.00183895
-0.00185368
-0.00186769
-0.00188096
-0.0018935
-0.00190528
-0.0019163
-0.00192655
-0.00193603
-0.00194473
-0.00195264
-0.00195974
-0.00196604
-0.00197154
-0.00197626
-0.00198018
-0.00198332
-0.00198569
-0.0019873
-0.00198819
-0.00198835
-0.00198781
-0.00198659
-0.00198473
-0.00198224
-0.00197916
-0.00197555
-0.00197145
-0.00196691
-0.00196197
-0.00195671
-0.0019512
-0.00194551
-0.0019397
-0.00193386
-0.00192809
-0.00192247
-0.00191709
-0.0019121
-0.00190752
-0.00190352
-0.00190014
-0.00189745
-0.00189539
-3.08384e-05
-2.7657e-05
-2.41328e-05
-2.02228e-05
-1.58011e-05
-1.09391e-05
-5.72727e-06
-2.7181e-07
5.34983e-06
1.10633e-05
1.67685e-05
2.243e-05
2.79439e-05
3.32644e-05
3.82819e-05
4.29246e-05
4.72063e-05
5.10525e-05
5.43744e-05
5.71388e-05
5.93321e-05
6.09222e-05
6.18782e-05
6.21434e-05
6.17054e-05
6.05588e-05
5.86957e-05
5.60844e-05
5.27065e-05
4.85687e-05
4.36596e-05
3.79886e-05
3.1544e-05
2.43053e-05
1.62761e-05
7.48071e-06
-2.07563e-06
-1.23963e-05
-2.34789e-05
-3.53124e-05
-4.78822e-05
-6.11708e-05
-7.5175e-05
-8.98909e-05
-0.000105306
-0.0001214
-0.000138154
-0.000155548
-0.000173575
-0.000192225
-0.00021148
-0.000231319
-0.000251715
-0.000272646
-0.000294102
-0.000316075
-0.000338547
-0.000361493
-0.000384886
-0.000408705
-0.000432936
-0.000457571
-0.000482595
-0.000507984
-0.000533711
-0.000559751
-0.000586081
-0.000612683
-0.000639543
-0.000666647
-0.000693977
-0.000721501
-0.000749188
-0.000777017
-0.00080497
-0.000833027
-0.000861173
-0.000889393
-0.000917666
-0.000945969
-0.000974278
-0.00100257
-0.00103084
-0.00105906
-0.00108721
-0.00111527
-0.00114322
-0.00117104
-0.0011987
-0.00122619
-0.00125347
-0.00128052
-0.00130734
-0.00133391
-0.00136021
-0.00138621
-0.0014119
-0.00143727
-0.00146227
-0.0014869
-0.00151112
-0.00153494
-0.00155832
-0.00158125
-0.0016037
-0.00162565
-0.00164707
-0.00166797
-0.00168831
-0.00170807
-0.00172724
-0.00174581
-0.00176375
-0.00178105
-0.00179771
-0.0018137
-0.00182901
-0.00184362
-0.00185752
-0.0018707
-0.00188315
-0.00189488
-0.00190585
-0.00191607
-0.00192554
-0.00193424
-0.00194217
-0.00194931
-0.00195566
-0.00196124
-0.00196606
-0.00197009
-0.00197336
-0.00197589
-0.00197768
-0.00197876
-0.00197913
-0.00197882
-0.00197784
-0.00197623
-0.00197401
-0.00197123
-0.00196791
-0.00196411
-0.00195986
-0.00195522
-0.00195025
-0.00194501
-0.00193957
-0.00193399
-0.00192833
-0.00192268
-0.00191712
-0.00191176
-0.00190664
-0.00190185
-0.0018975
-0.00189365
-0.00189023
-0.00188713
-3.95148e-05
-3.52258e-05
-3.09825e-05
-2.65279e-05
-2.16663e-05
-1.65377e-05
-1.11958e-05
-5.64997e-06
5.12062e-09
5.65319e-06
1.12292e-05
1.67348e-05
2.20637e-05
2.71517e-05
3.19484e-05
3.63714e-05
4.0395e-05
4.39638e-05
4.70204e-05
4.95407e-05
5.15157e-05
5.28883e-05
5.36145e-05
5.36641e-05
5.30335e-05
5.17169e-05
4.96906e-05
4.69228e-05
4.34094e-05
3.91689e-05
3.41855e-05
2.84434e-05
2.19351e-05
1.46496e-05
6.59435e-06
-2.21218e-06
-1.17643e-05
-2.20653e-05
-3.31119e-05
-4.48886e-05
-5.73813e-05
-7.05825e-05
-8.44939e-05
-9.91104e-05
-0.000114411
-0.00013037
-0.000146972
-0.000164207
-0.00018207
-0.000200549
-0.000219622
-0.000239262
-0.000259447
-0.000280163
-0.000301398
-0.000323144
-0.000345382
-0.000368084
-0.000391225
-0.000414786
-0.000438755
-0.000463125
-0.00048788
-0.000512995
-0.00053844
-0.000564192
-0.000590231
-0.000616541
-0.000643105
-0.000669911
-0.000696941
-0.000724166
-0.000751549
-0.000779067
-0.000806706
-0.000834452
-0.000862289
-0.000890199
-0.000918159
-0.00094615
-0.000974147
-0.00100213
-0.00103008
-0.00105798
-0.00108582
-0.00111358
-0.00114123
-0.00116874
-0.00119609
-0.00122326
-0.00125024
-0.001277
-0.00130352
-0.0013298
-0.00135581
-0.00138153
-0.00140693
-0.00143201
-0.00145674
-0.0014811
-0.00150506
-0.00152862
-0.00155175
-0.00157443
-0.00159664
-0.00161835
-0.00163956
-0.00166023
-0.00168037
-0.00169994
-0.00171891
-0.00173729
-0.00175506
-0.00177221
-0.00178873
-0.00180458
-0.00181976
-0.00183426
-0.00184806
-0.00186116
-0.00187355
-0.00188521
-0.00189615
-0.00190635
-0.00191581
-0.00192452
-0.00193246
-0.00193965
-0.00194607
-0.00195172
-0.00195662
-0.00196076
-0.00196416
-0.00196683
-0.00196878
-0.00197003
-0.00197059
-0.00197049
-0.00196973
-0.00196834
-0.00196636
-0.00196382
-0.00196075
-0.0019572
-0.00195321
-0.00194882
-0.00194407
-0.00193903
-0.00193376
-0.00192832
-0.00192278
-0.0019172
-0.00191163
-0.00190616
-0.00190084
-0.00189577
-0.001891
-0.0018866
-0.0018824
-0.00187819
-4.86512e-05
-4.32732e-05
-3.81986e-05
-3.31635e-05
-2.78731e-05
-2.24009e-05
-1.68117e-05
-1.11217e-05
-5.40914e-06
2.53523e-07
5.81682e-06
1.12306e-05
1.64208e-05
2.13523e-05
2.59765e-05
3.02147e-05
3.40356e-05
3.73736e-05
4.0208e-05
4.25324e-05
4.42981e-05
4.54588e-05
4.59784e-05
4.58533e-05
4.50638e-05
4.3591e-05
4.14161e-05
3.8507e-05
3.48726e-05
3.05287e-05
2.54594e-05
1.96376e-05
1.30629e-05
5.73866e-06
-2.33169e-06
-1.11449e-05
-2.06977e-05
-3.09879e-05
-4.20066e-05
-5.37369e-05
-6.61681e-05
-7.93009e-05
-9.31331e-05
-0.000107656
-0.000122848
-0.000138683
-0.00015515
-0.000172246
-0.000189964
-0.000208287
-0.000227189
-0.000246645
-0.000266637
-0.000287157
-0.000308195
-0.000329734
-0.000351752
-0.000374225
-0.000397131
-0.000420455
-0.000444186
-0.000468312
-0.000492816
-0.000517673
-0.000542855
-0.000568337
-0.000594103
-0.000620142
-0.000646437
-0.00067297
-0.000699718
-0.000726656
-0.000753752
-0.000780981
-0.000808329
-0.000835785
-0.000863334
-0.000890955
-0.000918623
-0.000946319
-0.000974022
-0.00100171
-0.00102937
-0.00105698
-0.00108453
-0.00111199
-0.00113936
-0.00116658
-0.00119364
-0.00122053
-0.00124723
-0.00127371
-0.00129995
-0.00132595
-0.00135169
-0.00137715
-0.00140229
-0.00142711
-0.00145158
-0.00147569
-0.00149941
-0.00152273
-0.00154562
-0.00156808
-0.00159006
-0.00161157
-0.00163256
-0.00165304
-0.00167298
-0.00169237
-0.00171117
-0.00172938
-0.001747
-0.00176401
-0.00178039
-0.00179612
-0.00181119
-0.00182559
-0.00183931
-0.00185234
-0.00186467
-0.00187628
-0.00188719
-0.00189737
-0.00190683
-0.00191555
-0.00192352
-0.00193075
-0.00193723
-0.00194295
-0.00194793
-0.00195217
-0.00195569
-0.00195849
-0.00196059
-0.001962
-0.00196273
-0.0019628
-0.00196223
-0.00196104
-0.00195926
-0.00195693
-0.00195408
-0.00195073
-0.00194694
-0.00194274
-0.00193817
-0.00193328
-0.00192813
-0.00192277
-0.00191728
-0.00191166
-0.00190601
-0.00190039
-0.00189483
-0.00188939
-0.00188415
-0.00187917
-0.00187415
-0.00186881
-5.80893e-05
-5.15676e-05
-4.56726e-05
-4.00481e-05
-3.42697e-05
-2.83892e-05
-2.24795e-05
-1.66006e-05
-1.0789e-05
-5.03829e-06
5.59299e-07
5.94486e-06
1.10478e-05
1.5857e-05
2.03599e-05
2.44563e-05
2.81019e-05
3.12798e-05
3.39557e-05
3.61096e-05
3.76872e-05
3.86574e-05
3.89948e-05
3.87062e-05
3.77651e-05
3.61376e-05
3.38238e-05
3.08051e-05
2.70786e-05
2.26426e-05
1.7484e-05
1.15809e-05
4.93921e-06
-2.4303e-06
-1.05271e-05
-1.93544e-05
-2.89102e-05
-3.91885e-05
-5.01781e-05
-6.18671e-05
-7.42496e-05
-8.73294e-05
-0.000101097
-0.000115536
-0.000130627
-0.000146353
-0.000162704
-0.000179678
-0.000197266
-0.000215444
-0.000234188
-0.000253475
-0.000273295
-0.00029364
-0.000314498
-0.000335847
-0.000357663
-0.000379924
-0.000402612
-0.000425718
-0.000449232
-0.000473135
-0.000497408
-0.000522024
-0.000546959
-0.00057219
-0.000597706
-0.000623496
-0.000649542
-0.000675821
-0.000702306
-0.000728974
-0.000755799
-0.00078276
-0.00080984
-0.000837029
-0.000864311
-0.000891662
-0.000919056
-0.000946475
-0.000973902
-0.00100132
-0.00102871
-0.00105605
-0.00108333
-0.00111052
-0.00113761
-0.00116457
-0.00119137
-0.00121799
-0.00124442
-0.00127065
-0.00129664
-0.00132238
-0.00134786
-0.00137307
-0.00139798
-0.00142256
-0.00144679
-0.00147066
-0.00149416
-0.00151726
-0.00153995
-0.00156219
-0.00158397
-0.00160527
-0.00162608
-0.00164638
-0.00166614
-0.00168536
-0.00170401
-0.00172207
-0.00173955
-0.00175643
-0.00177269
-0.00178832
-0.00180329
-0.0018176
-0.00183125
-0.00184422
-0.00185649
-0.00186807
-0.00187895
-0.00188912
-0.00189859
-0.00190732
-0.00191532
-0.00192259
-0.00192912
-0.00193492
-0.00193998
-0.00194431
-0.00194794
-0.00195086
-0.0019531
-0.00195465
-0.00195553
-0.00195576
-0.00195535
-0.00195433
-0.00195273
-0.00195057
-0.00194789
-0.00194472
-0.00194108
-0.00193702
-0.00193258
-0.00192779
-0.0019227
-0.00191736
-0.00191184
-0.00190616
-0.00190038
-0.00189454
-0.00188868
-0.00188284
-0.00187709
-0.00187149
-0.00186563
-0.00185916
-6.76824e-05
-6.00065e-05
-5.33016e-05
-4.70335e-05
-4.07165e-05
-3.4399e-05
-2.81659e-05
-2.20194e-05
-1.60186e-05
-1.01498e-05
-4.50002e-06
8.73865e-07
5.97762e-06
1.07517e-05
1.51469e-05
1.9115e-05
2.26257e-05
2.56755e-05
2.82219e-05
3.02222e-05
3.16425e-05
3.24624e-05
3.2663e-05
3.22368e-05
3.11549e-05
2.93822e-05
2.69308e-05
2.38064e-05
1.99892e-05
1.54634e-05
1.02228e-05
4.25258e-06
-2.44177e-06
-9.8536e-06
-1.7986e-05
-2.68384e-05
-3.64068e-05
-4.66797e-05
-5.76445e-05
-6.92979e-05
-8.16427e-05
-9.46803e-05
-0.000108393
-0.00012276
-0.000137761
-0.000153391
-0.000169642
-0.000186512
-0.000203982
-0.000222028
-0.000240628
-0.000259766
-0.000279432
-0.00029962
-0.000320313
-0.000341487
-0.000363118
-0.000385185
-0.000407678
-0.000430586
-0.000453899
-0.000477598
-0.000501655
-0.000526049
-0.000550757
-0.000575762
-0.000601048
-0.000626604
-0.000652415
-0.000678458
-0.000704705
-0.000731125
-0.000757699
-0.00078441
-0.000811244
-0.000838184
-0.000865215
-0.000892314
-0.000919459
-0.000946626
-0.000973798
-0.00100096
-0.00102809
-0.00105519
-0.00108222
-0.00110916
-0.001136
-0.00116271
-0.00118926
-0.00121564
-0.00124182
-0.0012678
-0.00129356
-0.00131907
-0.00134433
-0.0013693
-0.00139398
-0.00141834
-0.00144236
-0.00146602
-0.00148931
-0.00151221
-0.0015347
-0.00155675
-0.00157835
-0.00159947
-0.00162011
-0.00164024
-0.00165985
-0.00167891
-0.00169741
-0.00171535
-0.00173271
-0.00174947
-0.00176563
-0.00178116
-0.00179605
-0.00181028
-0.00182386
-0.00183678
-0.00184902
-0.00186057
-0.00187143
-0.0018816
-0.00189106
-0.00189982
-0.00190785
-0.00191516
-0.00192175
-0.00192761
-0.00193274
-0.00193717
-0.0019409
-0.00194394
-0.00194629
-0.00194797
-0.00194898
-0.00194935
-0.00194909
-0.00194821
-0.00194676
-0.00194474
-0.00194219
-0.00193915
-0.00193564
-0.00193168
-0.00192732
-0.00192259
-0.00191751
-0.00191216
-0.00190657
-0.00190076
-0.00189479
-0.00188869
-0.00188249
-0.00187622
-0.00186993
-0.00186369
-0.001857
-0.00184942
-7.7158e-05
-6.8452e-05
-6.08993e-05
-5.39661e-05
-4.71051e-05
-4.03509e-05
-3.3743e-05
-2.73008e-05
-2.10574e-05
-1.50654e-05
-9.33057e-06
-3.88847e-06
1.24262e-06
5.99443e-06
1.03274e-05
1.422e-05
1.76525e-05
2.06067e-05
2.30383e-05
2.48973e-05
2.61795e-05
2.68746e-05
2.69572e-05
2.64031e-05
2.51949e-05
2.3309e-05
2.0749e-05
1.75269e-05
1.36124e-05
8.98815e-06
3.66241e-06
-2.3715e-06
-9.11163e-06
-1.65608e-05
-2.47276e-05
-3.3605e-05
-4.31851e-05
-5.34558e-05
-6.44086e-05
-7.60445e-05
-8.83685e-05
-0.000101372
-0.000115033
-0.000129332
-0.000144257
-0.000159807
-0.000175976
-0.000192755
-0.000210119
-0.000228046
-0.000246517
-0.000265524
-0.000285058
-0.000305106
-0.000325648
-0.00034666
-0.000368121
-0.000390014
-0.000412331
-0.000435062
-0.000458194
-0.000481705
-0.000505567
-0.000529754
-0.000554251
-0.000579046
-0.000604126
-0.000629473
-0.000655069
-0.000680892
-0.000706914
-0.000733106
-0.00075945
-0.000785932
-0.000812539
-0.000839254
-0.000866055
-0.00089292
-0.00091983
-0.000946763
-0.0009737
-0.00100063
-0.00102753
-0.00105439
-0.0010812
-0.00110791
-0.00113452
-0.00116099
-0.00118732
-0.00121347
-0.00123944
-0.00126519
-0.00129073
-0.00131603
-0.00134107
-0.00136584
-0.00139031
-0.00141446
-0.00143829
-0.00146176
-0.00148486
-0.00150757
-0.00152988
-0.00155176
-0.00157319
-0.00159415
-0.00161464
-0.00163462
-0.00165409
-0.00167301
-0.00169139
-0.00170921
-0.00172646
-0.00174312
-0.00175918
-0.00177463
-0.00178944
-0.00180362
-0.00181715
-0.00183002
-0.00184222
-0.00185375
-0.00186461
-0.00187478
-0.00188426
-0.00189303
-0.0019011
-0.00190845
-0.00191509
-0.00192101
-0.00192622
-0.00193074
-0.00193456
-0.0019377
-0.00194016
-0.00194196
-0.00194309
-0.00194357
-0.00194343
-0.00194267
-0.00194134
-0.00193945
-0.00193701
-0.00193407
-0.00193064
-0.00192674
-0.00192243
-0.00191771
-0.00191262
-0.00190721
-0.0019015
-0.00189553
-0.00188934
-0.00188294
-0.00187636
-0.00186963
-0.0018628
-0.00185591
-0.0018484
-0.00183973
-8.6463e-05
-7.67422e-05
-6.83577e-05
-6.07862e-05
-5.33692e-05
-4.61517e-05
-3.91361e-05
-3.23773e-05
-2.58989e-05
-1.97028e-05
-1.38309e-05
-8.30042e-06
-3.1295e-06
1.61068e-06
5.91624e-06
9.78575e-06
1.31752e-05
1.60524e-05
1.83886e-05
2.01475e-05
2.1329e-05
2.19215e-05
2.18893e-05
2.12047e-05
1.98771e-05
1.78977e-05
1.52515e-05
1.19401e-05
7.9352e-06
3.22326e-06
-2.17968e-06
-8.27608e-06
-1.50701e-05
-2.25682e-05
-3.07754e-05
-3.96775e-05
-4.92646e-05
-5.95337e-05
-7.04851e-05
-8.21183e-05
-9.44314e-05
-0.000107405
-0.00012102
-0.000135263
-0.000150129
-0.000165616
-0.000181717
-0.000198414
-0.000215685
-0.000233507
-0.000251867
-0.000270759
-0.000290178
-0.000310103
-0.000330508
-0.000351373
-0.00037268
-0.00039442
-0.000416582
-0.000439154
-0.00046212
-0.000485458
-0.000509139
-0.000533141
-0.000557448
-0.000582053
-0.000606945
-0.000632103
-0.000657504
-0.000683123
-0.000708937
-0.000734921
-0.000761056
-0.000787329
-0.000813729
-0.000840236
-0.000866827
-0.000893477
-0.000920168
-0.000946884
-0.00097361
-0.00100033
-0.00102702
-0.00105367
-0.00108026
-0.00110676
-0.00113316
-0.00115942
-0.00118554
-0.00121149
-0.00123725
-0.0012628
-0.00128813
-0.00131324
-0.00133809
-0.00136267
-0.00138695
-0.00141092
-0.00143456
-0.00145786
-0.00148079
-0.00150334
-0.00152549
-0.00154722
-0.0015685
-0.00158931
-0.00160966
-0.00162951
-0.00164885
-0.00166766
-0.00168592
-0.00170363
-0.00172079
-0.00173737
-0.00175335
-0.00176872
-0.00178347
-0.0017976
-0.00181109
-0.00182392
-0.0018361
-0.00184762
-0.00185848
-0.00186866
-0.00187815
-0.00188695
-0.00189505
-0.00190245
-0.00190914
-0.00191512
-0.0019204
-0.001925
-0.00192891
-0.00193214
-0.0019347
-0.0019366
-0.00193784
-0.00193842
-0.00193838
-0.00193773
-0.00193649
-0.00193469
-0.00193234
-0.00192947
-0.00192609
-0.00192223
-0.00191793
-0.00191319
-0.00190805
-0.00190254
-0.00189669
-0.00189053
-0.00188408
-0.00187736
-0.00187039
-0.00186318
-0.0018558
-0.00184827
-0.00183994
-0.00183022
-9.54811e-05
-8.47138e-05
-7.55606e-05
-6.73759e-05
-5.94023e-05
-5.16713e-05
-4.42686e-05
-3.71898e-05
-3.04548e-05
-2.40452e-05
-1.79919e-05
-1.23477e-05
-7.11335e-06
-2.33225e-06
1.99166e-06
5.86032e-06
9.20933e-06
1.20168e-05
1.42759e-05
1.59651e-05
1.70672e-05
1.75716e-05
1.7444e-05
1.6657e-05
1.52319e-05
1.3166e-05
1.0432e-05
7.02345e-06
2.93227e-06
-1.84946e-06
-7.3144e-06
-1.3469e-05
-2.03217e-05
-2.78745e-05
-3.61242e-05
-4.50551e-05
-5.46569e-05
-6.49345e-05
-7.58931e-05
-8.75302e-05
-9.98356e-05
-0.000112785
-0.000126363
-0.000140565
-0.000155388
-0.000170827
-0.000186871
-0.000203497
-0.000220685
-0.000238417
-0.000256685
-0.000275483
-0.000294799
-0.000314613
-0.000334897
-0.000355632
-0.000376805
-0.000398409
-0.000420435
-0.000442866
-0.000465681
-0.000488859
-0.000512376
-0.000536213
-0.000560354
-0.000584789
-0.000609509
-0.000634494
-0.000659718
-0.000685154
-0.000710779
-0.000736573
-0.000762519
-0.000788604
-0.000814813
-0.000841129
-0.000867527
-0.000893984
-0.000920481
-0.000946999
-0.000973527
-0.00100005
-0.00102655
-0.00105301
-0.0010794
-0.00110572
-0.00113192
-0.001158
-0.00118392
-0.00120968
-0.00123526
-0.00126063
-0.00128579
-0.00131071
-0.00133539
-0.00135979
-0.00138391
-0.00140771
-0.00143119
-0.00145433
-0.00147711
-0.00149952
-0.00152152
-0.0015431
-0.00156425
-0.00158494
-0.00160517
-0.0016249
-0.00164412
-0.00166283
-0.001681
-0.00169862
-0.0017157
-0.00173221
-0.00174812
-0.00176343
-0.00177813
-0.00179222
-0.00180567
-0.00181849
-0.00183065
-0.00184217
-0.00185303
-0.00186322
-0.00187274
-0.00188157
-0.00188971
-0.00189715
-0.00190389
-0.00190993
-0.00191528
-0.00191995
-0.00192394
-0.00192726
-0.00192991
-0.00193189
-0.00193323
-0.00193391
-0.00193395
-0.00193338
-0.00193222
-0.00193048
-0.0019282
-0.00192537
-0.00192202
-0.00191816
-0.00191384
-0.00190905
-0.00190384
-0.00189821
-0.0018922
-0.00188581
-0.00187908
-0.00187203
-0.00186466
-0.00185696
-0.00184902
-0.00184085