/*--------------------------------*- C++ -*----------------------------------*\
  =========                 |
  \\      /  F ield         | OpenFOAM: The Open Source CFD Toolbox
   \\    /   O peration     | Website:  https://openfoam.org
    \\  /    A nd           | Version:  7
     \\/     M anipulation  |
\*---------------------------------------------------------------------------*/
FoamFile
{
    version     2.0;
    format      ascii;
    class       volVectorField;
    location    "0.475";
    object      U;
}
// * * * * * * * * * * * * * * * * * * * * * * * * * * * * * * * * * * * * * //

dimensions      [0 1 -1 0 0 0 0];

internalField   nonuniform List<vector> 
51200
(
(1.11036e-09 2.01912e-08 0)
(-3.57915e-08 3.17923e-08 0)
(-1.07934e-07 3.2656e-08 0)
(-1.7762e-07 2.87623e-08 0)
(-2.25095e-07 2.10661e-08 0)
(-2.44855e-07 1.05462e-08 0)
(-2.3248e-07 -6.25265e-10 0)
(-1.85552e-07 -1.23385e-08 0)
(-1.036e-07 -2.37335e-08 0)
(1.38123e-08 -3.43721e-08 0)
(1.65754e-07 -4.48033e-08 0)
(3.5079e-07 -5.50724e-08 0)
(5.67438e-07 -6.44259e-08 0)
(8.14132e-07 -7.32307e-08 0)
(1.08915e-06 -8.15966e-08 0)
(1.39118e-06 -8.91685e-08 0)
(1.71825e-06 -9.63381e-08 0)
(2.06829e-06 -1.0299e-07 0)
(2.43957e-06 -1.09084e-07 0)
(2.8307e-06 -1.1444e-07 0)
(3.2401e-06 -1.19353e-07 0)
(3.66576e-06 -1.239e-07 0)
(4.10642e-06 -1.28029e-07 0)
(4.56053e-06 -1.31631e-07 0)
(5.0263e-06 -1.34781e-07 0)
(5.50247e-06 -1.37606e-07 0)
(5.98777e-06 -1.40003e-07 0)
(6.48091e-06 -1.41916e-07 0)
(6.98056e-06 -1.43494e-07 0)
(7.48528e-06 -1.44806e-07 0)
(7.99403e-06 -1.45802e-07 0)
(8.50601e-06 -1.4644e-07 0)
(9.01999e-06 -1.46772e-07 0)
(9.53481e-06 -1.46841e-07 0)
(1.00495e-05 -1.46716e-07 0)
(1.05632e-05 -1.46251e-07 0)
(1.10752e-05 -1.45456e-07 0)
(1.15846e-05 -1.4451e-07 0)
(1.20903e-05 -1.43333e-07 0)
(1.25916e-05 -1.41974e-07 0)
(1.30881e-05 -1.4046e-07 0)
(1.35789e-05 -1.38675e-07 0)
(1.40634e-05 -1.36691e-07 0)
(1.45409e-05 -1.34586e-07 0)
(1.50109e-05 -1.3236e-07 0)
(1.54728e-05 -1.30003e-07 0)
(1.59261e-05 -1.27445e-07 0)
(1.63704e-05 -1.24699e-07 0)
(1.68051e-05 -1.21862e-07 0)
(1.72297e-05 -1.1895e-07 0)
(1.76439e-05 -1.15933e-07 0)
(1.80473e-05 -1.1278e-07 0)
(1.84397e-05 -1.09505e-07 0)
(1.88206e-05 -1.06168e-07 0)
(1.91897e-05 -1.02781e-07 0)
(1.95466e-05 -9.93143e-08 0)
(1.98911e-05 -9.57652e-08 0)
(2.0223e-05 -9.21428e-08 0)
(2.05421e-05 -8.84402e-08 0)
(2.08481e-05 -8.46546e-08 0)
(2.11407e-05 -8.08002e-08 0)
(2.14198e-05 -7.69167e-08 0)
(2.16852e-05 -7.30471e-08 0)
(2.19367e-05 -6.91669e-08 0)
(2.21743e-05 -6.51941e-08 0)
(2.23977e-05 -6.11027e-08 0)
(2.26068e-05 -5.69662e-08 0)
(2.28014e-05 -5.2863e-08 0)
(2.29815e-05 -4.87878e-08 0)
(2.3147e-05 -4.46818e-08 0)
(2.32977e-05 -4.05204e-08 0)
(2.34337e-05 -3.63345e-08 0)
(2.3555e-05 -3.21427e-08 0)
(2.36612e-05 -2.79078e-08 0)
(2.37524e-05 -2.36073e-08 0)
(2.38286e-05 -1.93072e-08 0)
(2.38898e-05 -1.50892e-08 0)
(2.3936e-05 -1.09226e-08 0)
(2.39669e-05 -6.69324e-09 0)
(2.39828e-05 -2.36165e-09 0)
(2.39835e-05 1.98756e-09 0)
(2.39691e-05 6.27234e-09 0)
(2.39395e-05 1.05142e-08 0)
(2.38948e-05 1.47725e-08 0)
(2.38349e-05 1.90403e-08 0)
(2.37601e-05 2.32701e-08 0)
(2.36702e-05 2.74734e-08 0)
(2.35652e-05 3.17212e-08 0)
(2.34452e-05 3.60291e-08 0)
(2.33103e-05 4.03049e-08 0)
(2.31606e-05 4.44562e-08 0)
(2.29961e-05 4.85175e-08 0)
(2.28169e-05 5.26083e-08 0)
(2.2623e-05 5.67716e-08 0)
(2.24147e-05 6.09261e-08 0)
(2.21922e-05 6.49952e-08 0)
(2.19554e-05 6.90037e-08 0)
(2.17043e-05 7.29986e-08 0)
(2.14393e-05 7.69454e-08 0)
(2.11605e-05 8.0786e-08 0)
(2.08681e-05 8.45574e-08 0)
(2.05622e-05 8.8354e-08 0)
(2.0243e-05 9.21793e-08 0)
(1.9911e-05 9.59208e-08 0)
(1.95663e-05 9.94916e-08 0)
(1.9209e-05 1.02933e-07 0)
(1.88394e-05 1.0634e-07 0)
(1.84579e-05 1.0973e-07 0)
(1.80648e-05 1.13032e-07 0)
(1.76606e-05 1.16191e-07 0)
(1.72454e-05 1.19231e-07 0)
(1.68198e-05 1.22193e-07 0)
(1.63841e-05 1.25053e-07 0)
(1.59388e-05 1.27743e-07 0)
(1.54844e-05 1.3026e-07 0)
(1.50212e-05 1.32674e-07 0)
(1.45499e-05 1.35009e-07 0)
(1.40711e-05 1.37182e-07 0)
(1.35853e-05 1.39106e-07 0)
(1.30931e-05 1.40804e-07 0)
(1.25953e-05 1.42349e-07 0)
(1.20924e-05 1.43738e-07 0)
(1.15853e-05 1.44909e-07 0)
(1.10748e-05 1.45841e-07 0)
(1.05616e-05 1.46565e-07 0)
(1.00465e-05 1.47071e-07 0)
(9.5305e-06 1.47284e-07 0)
(9.01447e-06 1.47155e-07 0)
(8.4994e-06 1.46721e-07 0)
(7.98626e-06 1.46051e-07 0)
(7.47616e-06 1.45129e-07 0)
(6.97033e-06 1.4385e-07 0)
(6.46997e-06 1.42148e-07 0)
(5.97619e-06 1.40073e-07 0)
(5.49019e-06 1.37683e-07 0)
(5.0134e-06 1.3493e-07 0)
(4.54726e-06 1.31722e-07 0)
(4.0931e-06 1.28051e-07 0)
(3.65232e-06 1.23966e-07 0)
(3.22644e-06 1.19464e-07 0)
(2.81711e-06 1.14456e-07 0)
(2.42608e-06 1.08877e-07 0)
(2.05495e-06 1.02752e-07 0)
(1.70526e-06 9.61299e-08 0)
(1.37876e-06 8.90095e-08 0)
(1.07737e-06 8.13416e-08 0)
(8.02894e-07 7.30563e-08 0)
(5.56929e-07 6.4146e-08 0)
(3.41101e-07 5.4678e-08 0)
(1.57046e-07 4.46792e-08 0)
(6.15931e-09 3.41254e-08 0)
(-1.10468e-07 2.31174e-08 0)
(-1.91993e-07 1.18999e-08 0)
(-2.38185e-07 6.76162e-10 0)
(-2.49977e-07 -1.03005e-08 0)
(-2.29849e-07 -2.04102e-08 0)
(-1.82602e-07 -2.8325e-08 0)
(-1.16839e-07 -3.15264e-08 0)
(-4.99936e-08 -2.62516e-08 0)
(-9.56404e-09 -9.5434e-09 0)
(-2.05725e-08 6.40496e-08 0)
(-9.77332e-08 1.20255e-07 0)
(-2.15569e-07 1.2442e-07 0)
(-3.16222e-07 1.00105e-07 0)
(-3.67523e-07 5.53594e-08 0)
(-3.49684e-07 -2.19029e-09 0)
(-2.50644e-07 -6.65533e-08 0)
(-6.31138e-08 -1.349e-07 0)
(2.16714e-07 -2.03538e-07 0)
(5.89363e-07 -2.71401e-07 0)
(1.05309e-06 -3.37332e-07 0)
(1.60733e-06 -4.01008e-07 0)
(2.24851e-06 -4.6198e-07 0)
(2.97174e-06 -5.19928e-07 0)
(3.77391e-06 -5.74217e-07 0)
(4.65095e-06 -6.24901e-07 0)
(5.59749e-06 -6.72686e-07 0)
(6.60912e-06 -7.17039e-07 0)
(7.68165e-06 -7.58017e-07 0)
(8.80994e-06 -7.95314e-07 0)
(9.98927e-06 -8.29559e-07 0)
(1.12156e-05 -8.60683e-07 0)
(1.24849e-05 -8.88618e-07 0)
(1.37928e-05 -9.1367e-07 0)
(1.51344e-05 -9.35947e-07 0)
(1.65062e-05 -9.55499e-07 0)
(1.79046e-05 -9.72284e-07 0)
(1.93258e-05 -9.86353e-07 0)
(2.07658e-05 -9.98117e-07 0)
(2.22212e-05 -1.00762e-06 0)
(2.36889e-05 -1.01478e-06 0)
(2.5166e-05 -1.01965e-06 0)
(2.66491e-05 -1.02251e-06 0)
(2.81351e-05 -1.02349e-06 0)
(2.96214e-05 -1.02272e-06 0)
(3.11055e-05 -1.02002e-06 0)
(3.25847e-05 -1.01535e-06 0)
(3.40565e-05 -1.00922e-06 0)
(3.55185e-05 -1.00159e-06 0)
(3.69684e-05 -9.92437e-07 0)
(3.84045e-05 -9.81956e-07 0)
(3.98247e-05 -9.70049e-07 0)
(4.12269e-05 -9.56827e-07 0)
(4.26092e-05 -9.42505e-07 0)
(4.39701e-05 -9.27102e-07 0)
(4.5308e-05 -9.10624e-07 0)
(4.66215e-05 -8.93051e-07 0)
(4.79089e-05 -8.7443e-07 0)
(4.91687e-05 -8.54976e-07 0)
(5.03999e-05 -8.34797e-07 0)
(5.16011e-05 -8.13841e-07 0)
(5.27714e-05 -7.92043e-07 0)
(5.39096e-05 -7.69442e-07 0)
(5.50147e-05 -7.46214e-07 0)
(5.60857e-05 -7.22472e-07 0)
(5.71218e-05 -6.98183e-07 0)
(5.8122e-05 -6.73332e-07 0)
(5.90858e-05 -6.47955e-07 0)
(6.00124e-05 -6.22082e-07 0)
(6.09011e-05 -5.95754e-07 0)
(6.17511e-05 -5.69019e-07 0)
(6.25619e-05 -5.41921e-07 0)
(6.33329e-05 -5.14523e-07 0)
(6.40639e-05 -4.86862e-07 0)
(6.47544e-05 -4.58881e-07 0)
(6.54037e-05 -4.30519e-07 0)
(6.60114e-05 -4.01845e-07 0)
(6.65772e-05 -3.73014e-07 0)
(6.71009e-05 -3.44082e-07 0)
(6.75822e-05 -3.14965e-07 0)
(6.80207e-05 -2.85593e-07 0)
(6.84163e-05 -2.56044e-07 0)
(6.87689e-05 -2.26439e-07 0)
(6.9078e-05 -1.96756e-07 0)
(6.93435e-05 -1.66877e-07 0)
(6.95652e-05 -1.36819e-07 0)
(6.97431e-05 -1.06754e-07 0)
(6.98775e-05 -7.67752e-08 0)
(6.99679e-05 -4.67655e-08 0)
(7.00142e-05 -1.65978e-08 0)
(7.00163e-05 1.36579e-08 0)
(6.99743e-05 4.38369e-08 0)
(6.98884e-05 7.39141e-08 0)
(6.97584e-05 1.04003e-07 0)
(6.95844e-05 1.3414e-07 0)
(6.93667e-05 1.64203e-07 0)
(6.91053e-05 1.94084e-07 0)
(6.88002e-05 2.23853e-07 0)
(6.84514e-05 2.5364e-07 0)
(6.80591e-05 2.83412e-07 0)
(6.76237e-05 3.12967e-07 0)
(6.71455e-05 3.4219e-07 0)
(6.66247e-05 3.71204e-07 0)
(6.60615e-05 4.00168e-07 0)
(6.54561e-05 4.29018e-07 0)
(6.48091e-05 4.57558e-07 0)
(6.41207e-05 4.85742e-07 0)
(6.33913e-05 5.13685e-07 0)
(6.26213e-05 5.41397e-07 0)
(6.18113e-05 5.68701e-07 0)
(6.09621e-05 5.9549e-07 0)
(6.0074e-05 6.21882e-07 0)
(5.91475e-05 6.48013e-07 0)
(5.81834e-05 6.73788e-07 0)
(5.71825e-05 6.98968e-07 0)
(5.61457e-05 7.23452e-07 0)
(5.50735e-05 7.4733e-07 0)
(5.39668e-05 7.70679e-07 0)
(5.28268e-05 7.93411e-07 0)
(5.16544e-05 8.15378e-07 0)
(5.04508e-05 8.36543e-07 0)
(4.9217e-05 8.56963e-07 0)
(4.79543e-05 8.76603e-07 0)
(4.66641e-05 8.95281e-07 0)
(4.53476e-05 9.1286e-07 0)
(4.40064e-05 9.29398e-07 0)
(4.26419e-05 9.44991e-07 0)
(4.12558e-05 9.59539e-07 0)
(3.98498e-05 9.72795e-07 0)
(3.8426e-05 9.84633e-07 0)
(3.6986e-05 9.95115e-07 0)
(3.55319e-05 1.00427e-06 0)
(3.4066e-05 1.01196e-06 0)
(3.25905e-05 1.01805e-06 0)
(3.11077e-05 1.02248e-06 0)
(2.96199e-05 1.02522e-06 0)
(2.81297e-05 1.02616e-06 0)
(2.664e-05 1.02513e-06 0)
(2.51536e-05 1.02201e-06 0)
(2.36734e-05 1.01678e-06 0)
(2.22024e-05 1.00948e-06 0)
(2.07437e-05 1e-06 0)
(1.93011e-05 9.88094e-07 0)
(1.78779e-05 9.7362e-07 0)
(1.64776e-05 9.56595e-07 0)
(1.51039e-05 9.36971e-07 0)
(1.37608e-05 9.14577e-07 0)
(1.24522e-05 8.89264e-07 0)
(1.11823e-05 8.6096e-07 0)
(9.95529e-06 8.29626e-07 0)
(8.77541e-06 7.95194e-07 0)
(7.64735e-06 7.57505e-07 0)
(6.57574e-06 7.16392e-07 0)
(5.56499e-06 6.71867e-07 0)
(4.61956e-06 6.24056e-07 0)
(3.74416e-06 5.72935e-07 0)
(2.94347e-06 5.18354e-07 0)
(2.22188e-06 4.60401e-07 0)
(1.58332e-06 3.99424e-07 0)
(1.03136e-06 3.35695e-07 0)
(5.69194e-07 2.69469e-07 0)
(1.99128e-07 2.01483e-07 0)
(-7.80672e-08 1.32987e-07 0)
(-2.63499e-07 6.55853e-08 0)
(-3.60929e-07 1.62554e-09 0)
(-3.77705e-07 -5.52567e-08 0)
(-3.25884e-07 -9.92831e-08 0)
(-2.25289e-07 -1.21639e-07 0)
(-1.09167e-07 -1.09364e-07 0)
(-2.63104e-08 -4.9774e-08 0)
(-2.97362e-08 1.25464e-07 0)
(-1.1708e-07 2.33109e-07 0)
(-2.25715e-07 2.34825e-07 0)
(-2.96001e-07 1.63652e-07 0)
(-2.87244e-07 4.41951e-08 0)
(-1.73731e-07 -1.07704e-07 0)
(6.11805e-08 -2.79118e-07 0)
(4.29029e-07 -4.61085e-07 0)
(9.36038e-07 -6.4703e-07 0)
(1.58404e-06 -8.33125e-07 0)
(2.37269e-06 -1.01556e-06 0)
(3.29888e-06 -1.19186e-06 0)
(4.35894e-06 -1.36198e-06 0)
(5.54818e-06 -1.52423e-06 0)
(6.86054e-06 -1.67716e-06 0)
(8.2891e-06 -1.82134e-06 0)
(9.82744e-06 -1.95658e-06 0)
(1.14689e-05 -2.08223e-06 0)
(1.32064e-05 -2.19869e-06 0)
(1.50326e-05 -2.30625e-06 0)
(1.69404e-05 -2.40479e-06 0)
(1.89234e-05 -2.49418e-06 0)
(2.09748e-05 -2.57483e-06 0)
(2.30875e-05 -2.64741e-06 0)
(2.52551e-05 -2.71196e-06 0)
(2.74715e-05 -2.76842e-06 0)
(2.97308e-05 -2.81725e-06 0)
(3.20267e-05 -2.85878e-06 0)
(3.43534e-05 -2.89346e-06 0)
(3.67055e-05 -2.92141e-06 0)
(3.9078e-05 -2.94261e-06 0)
(4.14656e-05 -2.95752e-06 0)
(4.38633e-05 -2.96657e-06 0)
(4.62661e-05 -2.96998e-06 0)
(4.86701e-05 -2.9679e-06 0)
(5.10709e-05 -2.96051e-06 0)
(5.34642e-05 -2.94805e-06 0)
(5.58457e-05 -2.93095e-06 0)
(5.82121e-05 -2.90941e-06 0)
(6.05595e-05 -2.8834e-06 0)
(6.28848e-05 -2.85326e-06 0)
(6.51847e-05 -2.81928e-06 0)
(6.74558e-05 -2.78164e-06 0)
(6.96953e-05 -2.74052e-06 0)
(7.19005e-05 -2.69607e-06 0)
(7.40689e-05 -2.64841e-06 0)
(7.61979e-05 -2.59775e-06 0)
(7.82849e-05 -2.54432e-06 0)
(8.03277e-05 -2.48828e-06 0)
(8.23243e-05 -2.42979e-06 0)
(8.42727e-05 -2.36896e-06 0)
(8.61713e-05 -2.30587e-06 0)
(8.8018e-05 -2.24062e-06 0)
(8.98112e-05 -2.17342e-06 0)
(9.15493e-05 -2.10448e-06 0)
(9.32309e-05 -2.03388e-06 0)
(9.48546e-05 -1.96165e-06 0)
(9.64194e-05 -1.88787e-06 0)
(9.79238e-05 -1.81269e-06 0)
(9.93668e-05 -1.73625e-06 0)
(0.000100747 -1.65865e-06 0)
(0.000102064 -1.57994e-06 0)
(0.000103317 -1.50014e-06 0)
(0.000104504 -1.41934e-06 0)
(0.000105626 -1.33769e-06 0)
(0.000106681 -1.25528e-06 0)
(0.000107668 -1.1721e-06 0)
(0.000108588 -1.0882e-06 0)
(0.000109439 -1.0037e-06 0)
(0.000110221 -9.1868e-07 0)
(0.000110934 -8.33119e-07 0)
(0.000111577 -7.47021e-07 0)
(0.00011215 -6.60533e-07 0)
(0.000112652 -5.73815e-07 0)
(0.000113084 -4.86862e-07 0)
(0.000113445 -3.99553e-07 0)
(0.000113734 -3.119e-07 0)
(0.000113952 -2.24088e-07 0)
(0.000114099 -1.36258e-07 0)
(0.000114175 -4.83757e-08 0)
(0.000114178 3.96177e-08 0)
(0.00011411 1.27638e-07 0)
(0.000113971 2.15549e-07 0)
(0.00011376 3.03338e-07 0)
(0.000113477 3.9108e-07 0)
(0.000113123 4.78742e-07 0)
(0.000112698 5.66149e-07 0)
(0.000112202 6.53164e-07 0)
(0.000111635 7.3982e-07 0)
(0.000110998 8.26205e-07 0)
(0.000110291 9.12264e-07 0)
(0.000109514 9.97805e-07 0)
(0.000108667 1.08271e-06 0)
(0.000107752 1.16703e-06 0)
(0.000106769 1.2508e-06 0)
(0.000105718 1.33386e-06 0)
(0.0001046 1.41603e-06 0)
(0.000103415 1.49728e-06 0)
(0.000102165 1.57768e-06 0)
(0.000100849 1.65715e-06 0)
(9.94699e-05 1.73545e-06 0)
(9.80279e-05 1.81243e-06 0)
(9.6524e-05 1.88811e-06 0)
(9.49592e-05 1.96252e-06 0)
(9.33346e-05 2.03548e-06 0)
(9.16516e-05 2.10677e-06 0)
(8.99117e-05 2.17626e-06 0)
(8.81163e-05 2.24393e-06 0)
(8.62669e-05 2.30969e-06 0)
(8.43652e-05 2.37333e-06 0)
(8.24132e-05 2.43467e-06 0)
(8.04126e-05 2.49363e-06 0)
(7.83655e-05 2.55015e-06 0)
(7.62738e-05 2.60404e-06 0)
(7.41399e-05 2.65503e-06 0)
(7.19664e-05 2.7029e-06 0)
(6.97557e-05 2.74758e-06 0)
(6.75103e-05 2.78899e-06 0)
(6.52331e-05 2.82691e-06 0)
(6.29272e-05 2.86103e-06 0)
(6.05957e-05 2.89114e-06 0)
(5.82419e-05 2.91711e-06 0)
(5.58693e-05 2.9388e-06 0)
(5.34815e-05 2.95591e-06 0)
(5.10823e-05 2.96814e-06 0)
(4.86757e-05 2.97527e-06 0)
(4.62657e-05 2.97719e-06 0)
(4.38567e-05 2.97369e-06 0)
(4.14534e-05 2.96437e-06 0)
(3.90606e-05 2.94888e-06 0)
(3.66832e-05 2.92706e-06 0)
(3.43262e-05 2.89881e-06 0)
(3.1995e-05 2.86381e-06 0)
(2.96954e-05 2.82167e-06 0)
(2.74329e-05 2.77215e-06 0)
(2.52136e-05 2.71503e-06 0)
(2.30434e-05 2.65004e-06 0)
(2.09288e-05 2.5769e-06 0)
(1.88762e-05 2.49532e-06 0)
(1.68923e-05 2.40505e-06 0)
(1.49838e-05 2.30603e-06 0)
(1.31577e-05 2.19812e-06 0)
(1.14211e-05 2.08098e-06 0)
(9.78088e-06 1.95445e-06 0)
(8.24406e-06 1.81866e-06 0)
(6.81741e-06 1.67385e-06 0)
(5.50775e-06 1.52017e-06 0)
(4.32158e-06 1.35788e-06 0)
(3.26458e-06 1.18763e-06 0)
(2.34152e-06 1.01055e-06 0)
(1.55647e-06 8.28137e-07 0)
(9.12159e-07 6.42468e-07 0)
(4.09083e-07 4.56678e-07 0)
(4.47538e-08 2.75212e-07 0)
(-1.87202e-07 1.04364e-07 0)
(-2.9791e-07 -4.65899e-08 0)
(-3.04641e-07 -1.6469e-07 0)
(-2.32395e-07 -2.32185e-07 0)
(-1.21438e-07 -2.25698e-07 0)
(-3.12757e-08 -1.1683e-07 0)
(-2.72546e-08 1.86795e-07 0)
(-9.62292e-08 3.30649e-07 0)
(-1.59993e-07 3.04345e-07 0)
(-1.55868e-07 1.59403e-07 0)
(-4.15835e-08 -6.80168e-08 0)
(2.10272e-07 -3.51745e-07 0)
(6.20137e-07 -6.709e-07 0)
(1.20132e-06 -1.00968e-06 0)
(1.96101e-06 -1.35833e-06 0)
(2.90282e-06 -1.70747e-06 0)
(4.02679e-06 -2.05215e-06 0)
(5.32991e-06 -2.38772e-06 0)
(6.80743e-06 -2.71124e-06 0)
(8.45433e-06 -3.02045e-06 0)
(1.02629e-05 -3.3141e-06 0)
(1.22247e-05 -3.59166e-06 0)
(1.43321e-05 -3.85182e-06 0)
(1.65762e-05 -4.09445e-06 0)
(1.89477e-05 -4.31986e-06 0)
(2.14375e-05 -4.5282e-06 0)
(2.4037e-05 -4.71935e-06 0)
(2.67371e-05 -4.89339e-06 0)
(2.95287e-05 -5.05097e-06 0)
(3.24029e-05 -5.19272e-06 0)
(3.53514e-05 -5.31877e-06 0)
(3.83659e-05 -5.42941e-06 0)
(4.14381e-05 -5.5254e-06 0)
(4.45599e-05 -5.60741e-06 0)
(4.77238e-05 -5.67575e-06 0)
(5.09227e-05 -5.73085e-06 0)
(5.41494e-05 -5.77307e-06 0)
(5.73968e-05 -5.80322e-06 0)
(6.06582e-05 -5.82182e-06 0)
(6.39273e-05 -5.82913e-06 0)
(6.71983e-05 -5.82563e-06 0)
(7.04653e-05 -5.81185e-06 0)
(7.37223e-05 -5.78835e-06 0)
(7.69641e-05 -5.75561e-06 0)
(8.01857e-05 -5.714e-06 0)
(8.33821e-05 -5.66379e-06 0)
(8.65487e-05 -5.60535e-06 0)
(8.96811e-05 -5.53931e-06 0)
(9.27749e-05 -5.4661e-06 0)
(9.58262e-05 -5.38599e-06 0)
(9.88311e-05 -5.29927e-06 0)
(0.000101786 -5.20623e-06 0)
(0.000104688 -5.1073e-06 0)
(0.000107533 -5.00293e-06 0)
(0.000110318 -4.89336e-06 0)
(0.000113041 -4.77879e-06 0)
(0.000115698 -4.65951e-06 0)
(0.000118288 -4.53585e-06 0)
(0.000120807 -4.40807e-06 0)
(0.000123253 -4.27643e-06 0)
(0.000125625 -4.14118e-06 0)
(0.000127919 -4.00256e-06 0)
(0.000130135 -3.86072e-06 0)
(0.000132271 -3.71585e-06 0)
(0.000134325 -3.56818e-06 0)
(0.000136294 -3.41797e-06 0)
(0.000138179 -3.26544e-06 0)
(0.000139977 -3.11071e-06 0)
(0.000141688 -2.95383e-06 0)
(0.000143309 -2.79494e-06 0)
(0.000144841 -2.63425e-06 0)
(0.000146282 -2.47202e-06 0)
(0.00014763 -2.30838e-06 0)
(0.000148887 -2.14335e-06 0)
(0.000150049 -1.97702e-06 0)
(0.000151118 -1.80957e-06 0)
(0.000152092 -1.64113e-06 0)
(0.000152971 -1.47173e-06 0)
(0.000153753 -1.30144e-06 0)
(0.00015444 -1.13047e-06 0)
(0.00015503 -9.59039e-07 0)
(0.000155523 -7.87146e-07 0)
(0.000155919 -6.14712e-07 0)
(0.000156217 -4.41797e-07 0)
(0.000156418 -2.68627e-07 0)
(0.000156521 -9.53877e-08 0)
(0.000156526 7.78922e-08 0)
(0.000156433 2.51216e-07 0)
(0.000156242 4.24473e-07 0)
(0.000155954 5.9751e-07 0)
(0.000155568 7.70268e-07 0)
(0.000155085 9.42757e-07 0)
(0.000154504 1.1149e-06 0)
(0.000153827 1.28647e-06 0)
(0.000153053 1.45727e-06 0)
(0.000152182 1.62727e-06 0)
(0.000151216 1.79649e-06 0)
(0.000150155 1.96486e-06 0)
(0.000148999 2.13216e-06 0)
(0.000147749 2.29822e-06 0)
(0.000146406 2.46296e-06 0)
(0.000144971 2.6263e-06 0)
(0.000143444 2.78803e-06 0)
(0.000141826 2.94793e-06 0)
(0.000140119 3.10592e-06 0)
(0.000138323 3.26196e-06 0)
(0.000136441 3.41588e-06 0)
(0.000134472 3.56736e-06 0)
(0.000132419 3.71616e-06 0)
(0.000130284 3.86215e-06 0)
(0.000128067 4.0052e-06 0)
(0.000125771 4.14509e-06 0)
(0.000123397 4.28154e-06 0)
(0.000120948 4.41428e-06 0)
(0.000118425 4.54312e-06 0)
(0.000115832 4.66782e-06 0)
(0.00011317 4.78807e-06 0)
(0.000110442 4.90354e-06 0)
(0.000107651 5.014e-06 0)
(0.0001048 5.11921e-06 0)
(0.000101891 5.21887e-06 0)
(9.89294e-05 5.31254e-06 0)
(9.5917e-05 5.3998e-06 0)
(9.2858e-05 5.48037e-06 0)
(8.97561e-05 5.55401e-06 0)
(8.66155e-05 5.62032e-06 0)
(8.34406e-05 5.6788e-06 0)
(8.02357e-05 5.72908e-06 0)
(7.70057e-05 5.77083e-06 0)
(7.37554e-05 5.80364e-06 0)
(7.049e-05 5.82696e-06 0)
(6.7215e-05 5.84027e-06 0)
(6.3936e-05 5.84321e-06 0)
(6.06588e-05 5.83542e-06 0)
(5.73896e-05 5.81641e-06 0)
(5.41349e-05 5.78558e-06 0)
(5.09014e-05 5.74236e-06 0)
(4.76961e-05 5.68636e-06 0)
(4.4526e-05 5.61717e-06 0)
(4.13987e-05 5.53427e-06 0)
(3.83219e-05 5.43708e-06 0)
(3.53033e-05 5.32513e-06 0)
(3.23513e-05 5.19797e-06 0)
(2.94741e-05 5.05516e-06 0)
(2.66803e-05 4.8962e-06 0)
(2.39789e-05 4.72065e-06 0)
(2.13786e-05 4.52825e-06 0)
(1.88884e-05 4.31884e-06 0)
(1.65174e-05 4.09218e-06 0)
(1.42746e-05 3.84808e-06 0)
(1.21692e-05 3.58657e-06 0)
(1.02097e-05 3.30814e-06 0)
(8.40439e-06 3.01347e-06 0)
(6.76118e-06 2.70343e-06 0)
(5.2872e-06 2.37931e-06 0)
(3.98832e-06 2.04329e-06 0)
(2.869e-06 1.69849e-06 0)
(1.93191e-06 1.34911e-06 0)
(1.17693e-06 1.00105e-06 0)
(6.00412e-07 6.62318e-07 0)
(1.94599e-07 3.44151e-07 0)
(-5.3623e-08 6.21061e-08 0)
(-1.64059e-07 -1.63357e-07 0)
(-1.65392e-07 -3.04364e-07 0)
(-9.95857e-08 -3.2633e-07 0)
(-2.8092e-08 -1.82994e-07 0)
(-1.96853e-08 2.33014e-07 0)
(-5.31853e-08 3.80019e-07 0)
(-4.22203e-08 2.94895e-07 0)
(6.93388e-08 4.55301e-08 0)
(3.22736e-07 -3.21966e-07 0)
(7.46571e-07 -7.7016e-07 0)
(1.36218e-06 -1.27115e-06 0)
(2.18222e-06 -1.80382e-06 0)
(3.21619e-06 -2.35122e-06 0)
(4.468e-06 -2.90147e-06 0)
(5.93728e-06 -3.44597e-06 0)
(7.62163e-06 -3.97797e-06 0)
(9.51622e-06 -4.4917e-06 0)
(1.16146e-05 -4.98423e-06 0)
(1.39081e-05 -5.45362e-06 0)
(1.63878e-05 -5.89753e-06 0)
(1.90448e-05 -6.31491e-06 0)
(2.18678e-05 -6.70526e-06 0)
(2.48463e-05 -7.0685e-06 0)
(2.797e-05 -7.40427e-06 0)
(3.12282e-05 -7.71274e-06 0)
(3.461e-05 -7.99448e-06 0)
(3.81041e-05 -8.25003e-06 0)
(4.17003e-05 -8.47993e-06 0)
(4.53885e-05 -8.6846e-06 0)
(4.91583e-05 -8.86484e-06 0)
(5.29995e-05 -9.02151e-06 0)
(5.69024e-05 -9.15546e-06 0)
(6.0858e-05 -9.26718e-06 0)
(6.48572e-05 -9.35741e-06 0)
(6.8891e-05 -9.42711e-06 0)
(7.29508e-05 -9.47718e-06 0)
(7.70285e-05 -9.50837e-06 0)
(8.11162e-05 -9.52117e-06 0)
(8.52065e-05 -9.51636e-06 0)
(8.92921e-05 -9.49493e-06 0)
(9.33657e-05 -9.45759e-06 0)
(9.74207e-05 -9.40501e-06 0)
(0.000101451 -9.3379e-06 0)
(0.00010545 -9.25687e-06 0)
(0.000109413 -9.16252e-06 0)
(0.000113333 -9.05566e-06 0)
(0.000117205 -8.93693e-06 0)
(0.000121025 -8.80683e-06 0)
(0.000124787 -8.66588e-06 0)
(0.000128487 -8.51464e-06 0)
(0.000132121 -8.35374e-06 0)
(0.000135684 -8.18386e-06 0)
(0.000139172 -8.00539e-06 0)
(0.000142583 -7.8187e-06 0)
(0.000145912 -7.62424e-06 0)
(0.000149157 -7.42255e-06 0)
(0.000152313 -7.21409e-06 0)
(0.000155379 -6.99929e-06 0)
(0.000158352 -6.77849e-06 0)
(0.000161228 -6.55204e-06 0)
(0.000164006 -6.32031e-06 0)
(0.000166684 -6.08363e-06 0)
(0.000169258 -5.84236e-06 0)
(0.000171728 -5.59681e-06 0)
(0.000174092 -5.34731e-06 0)
(0.000176347 -5.09414e-06 0)
(0.000178492 -4.83751e-06 0)
(0.000180526 -4.57764e-06 0)
(0.000182448 -4.31479e-06 0)
(0.000184255 -4.04926e-06 0)
(0.000185947 -3.78132e-06 0)
(0.000187523 -3.51113e-06 0)
(0.000188982 -3.2388e-06 0)
(0.000190323 -2.96456e-06 0)
(0.000191545 -2.68867e-06 0)
(0.000192648 -2.4113e-06 0)
(0.00019363 -2.13255e-06 0)
(0.000194492 -1.85255e-06 0)
(0.000195232 -1.57155e-06 0)
(0.000195851 -1.28977e-06 0)
(0.000196348 -1.00727e-06 0)
(0.000196723 -7.24103e-07 0)
(0.000196975 -4.40456e-07 0)
(0.000197104 -1.56592e-07 0)
(0.000197111 1.2733e-07 0)
(0.000196995 4.11275e-07 0)
(0.000196756 6.95166e-07 0)
(0.000196394 9.78786e-07 0)
(0.00019591 1.2619e-06 0)
(0.000195304 1.54439e-06 0)
(0.000194575 1.8262e-06 0)
(0.000193725 2.10719e-06 0)
(0.000192754 2.38708e-06 0)
(0.000191662 2.66564e-06 0)
(0.00019045 2.94276e-06 0)
(0.000189118 3.21838e-06 0)
(0.000187668 3.49229e-06 0)
(0.000186101 3.76418e-06 0)
(0.000184416 4.0338e-06 0)
(0.000182616 4.30105e-06 0)
(0.000180701 4.56574e-06 0)
(0.000178672 4.82752e-06 0)
(0.000176531 5.08606e-06 0)
(0.000174279 5.34116e-06 0)
(0.000171919 5.59267e-06 0)
(0.000169451 5.84029e-06 0)
(0.000166877 6.0836e-06 0)
(0.0001642 6.32224e-06 0)
(0.000161421 6.55592e-06 0)
(0.000158543 6.78435e-06 0)
(0.000155568 7.00712e-06 0)
(0.000152499 7.22376e-06 0)
(0.000149338 7.43392e-06 0)
(0.000146089 7.63727e-06 0)
(0.000142754 7.83339e-06 0)
(0.000139337 8.02171e-06 0)
(0.000135842 8.20167e-06 0)
(0.000132271 8.37285e-06 0)
(0.000128629 8.53485e-06 0)
(0.000124921 8.68715e-06 0)
(0.000121149 8.82906e-06 0)
(0.00011732 8.96e-06 0)
(0.000113438 9.07943e-06 0)
(0.000109508 9.18679e-06 0)
(0.000105535 9.28141e-06 0)
(0.000101525 9.36262e-06 0)
(9.74843e-05 9.42981e-06 0)
(9.34187e-05 9.48233e-06 0)
(8.93345e-05 9.51944e-06 0)
(8.52386e-05 9.54037e-06 0)
(8.11381e-05 9.54433e-06 0)
(7.70404e-05 9.53064e-06 0)
(7.2953e-05 9.49865e-06 0)
(6.88838e-05 9.4476e-06 0)
(6.48413e-05 9.3766e-06 0)
(6.0834e-05 9.28484e-06 0)
(5.68707e-05 9.17163e-06 0)
(5.29607e-05 9.03623e-06 0)
(4.91132e-05 8.87779e-06 0)
(4.53381e-05 8.69559e-06 0)
(4.16454e-05 8.48893e-06 0)
(3.80451e-05 8.25714e-06 0)
(3.45476e-05 7.99962e-06 0)
(3.11637e-05 7.71575e-06 0)
(2.79043e-05 7.40501e-06 0)
(2.47799e-05 7.06713e-06 0)
(2.18013e-05 6.70204e-06 0)
(1.89793e-05 6.30975e-06 0)
(1.63245e-05 5.89041e-06 0)
(1.38473e-05 5.44472e-06 0)
(1.15571e-05 4.97394e-06 0)
(9.46291e-06 4.47985e-06 0)
(7.57265e-06 3.96482e-06 0)
(5.89293e-06 3.43235e-06 0)
(4.4286e-06 2.88744e-06 0)
(3.18236e-06 2.33683e-06 0)
(2.15384e-06 1.78953e-06 0)
(1.33888e-06 1.25773e-06 0)
(7.28984e-07 7.57851e-07 0)
(3.09621e-07 3.11445e-07 0)
(6.02662e-08 -5.27554e-08 0)
(-4.79571e-08 -2.98465e-07 0)
(-5.62133e-08 -3.78449e-07 0)
(-2.06264e-08 -2.30735e-07 0)
(-1.01605e-08 2.52031e-07 0)
(3.09486e-09 3.61739e-07 0)
(1.08483e-07 1.81755e-07 0)
(3.51208e-07 -2.06466e-07 0)
(7.69425e-07 -7.4584e-07 0)
(1.39063e-06 -1.39072e-06 0)
(2.23395e-06 -2.1064e-06 0)
(3.31443e-06 -2.865e-06 0)
(4.64011e-06 -3.64415e-06 0)
(6.21415e-06 -4.42897e-06 0)
(8.03717e-06 -5.20638e-06 0)
(1.01073e-05 -5.96723e-06 0)
(1.24184e-05 -6.70404e-06 0)
(1.49627e-05 -7.41213e-06 0)
(1.77321e-05 -8.08795e-06 0)
(2.07167e-05 -8.72788e-06 0)
(2.39055e-05 -9.33106e-06 0)
(2.72868e-05 -9.89639e-06 0)
(3.08489e-05 -1.0423e-05 0)
(3.45799e-05 -1.09104e-05 0)
(3.84673e-05 -1.13589e-05 0)
(4.24986e-05 -1.17693e-05 0)
(4.66615e-05 -1.21419e-05 0)
(5.09441e-05 -1.24774e-05 0)
(5.53343e-05 -1.27765e-05 0)
(5.98201e-05 -1.30404e-05 0)
(6.43899e-05 -1.32701e-05 0)
(6.90327e-05 -1.34665e-05 0)
(7.37375e-05 -1.36307e-05 0)
(7.84938e-05 -1.37636e-05 0)
(8.32909e-05 -1.38667e-05 0)
(8.81189e-05 -1.39411e-05 0)
(9.29684e-05 -1.39876e-05 0)
(9.78302e-05 -1.40074e-05 0)
(0.000102695 -1.40015e-05 0)
(0.000107555 -1.39712e-05 0)
(0.0001124 -1.39175e-05 0)
(0.000117224 -1.38413e-05 0)
(0.000122019 -1.37436e-05 0)
(0.000126777 -1.36255e-05 0)
(0.000131493 -1.34879e-05 0)
(0.000136158 -1.33319e-05 0)
(0.000140766 -1.31583e-05 0)
(0.000145313 -1.29678e-05 0)
(0.000149791 -1.27614e-05 0)
(0.000154196 -1.25399e-05 0)
(0.000158523 -1.23041e-05 0)
(0.000162765 -1.20549e-05 0)
(0.00016692 -1.1793e-05 0)
(0.000170982 -1.15189e-05 0)
(0.000174948 -1.12333e-05 0)
(0.000178813 -1.0937e-05 0)
(0.000182573 -1.06307e-05 0)
(0.000186226 -1.0315e-05 0)
(0.000189768 -9.99028e-06 0)
(0.000193196 -9.65718e-06 0)
(0.000196507 -9.31621e-06 0)
(0.000199698 -8.96793e-06 0)
(0.000202767 -8.61285e-06 0)
(0.000205711 -8.25143e-06 0)
(0.000208528 -7.88404e-06 0)
(0.000211217 -7.51109e-06 0)
(0.000213775 -7.133e-06 0)
(0.0002162 -6.75018e-06 0)
(0.000218491 -6.36297e-06 0)
(0.000220647 -5.97171e-06 0)
(0.000222665 -5.57677e-06 0)
(0.000224544 -5.17848e-06 0)
(0.000226285 -4.77707e-06 0)
(0.000227884 -4.37276e-06 0)
(0.000229342 -3.96589e-06 0)
(0.000230657 -3.55683e-06 0)
(0.000231829 -3.14581e-06 0)
(0.000232857 -2.733e-06 0)
(0.000233741 -2.31858e-06 0)
(0.000234479 -1.90285e-06 0)
(0.000235072 -1.48608e-06 0)
(0.000235519 -1.06846e-06 0)
(0.00023582 -6.50148e-07 0)
(0.000235975 -2.31413e-07 0)
(0.000235983 1.8747e-07 0)
(0.000235844 6.06315e-07 0)
(0.000235559 1.025e-06 0)
(0.000235128 1.44333e-06 0)
(0.000234551 1.86101e-06 0)
(0.000233828 2.27773e-06 0)
(0.000232959 2.6933e-06 0)
(0.000231946 3.10758e-06 0)
(0.000230787 3.52032e-06 0)
(0.000229485 3.93118e-06 0)
(0.00022804 4.33987e-06 0)
(0.000226452 4.74619e-06 0)
(0.000224723 5.14993e-06 0)
(0.000222854 5.55073e-06 0)
(0.000220845 5.94818e-06 0)
(0.000218699 6.34197e-06 0)
(0.000216415 6.73187e-06 0)
(0.000213997 7.11754e-06 0)
(0.000211444 7.49849e-06 0)
(0.000208761 7.87428e-06 0)
(0.000205947 8.24458e-06 0)
(0.000203005 8.60904e-06 0)
(0.000199938 8.96716e-06 0)
(0.000196747 9.31839e-06 0)
(0.000193436 9.66221e-06 0)
(0.000190007 9.99819e-06 0)
(0.000186462 1.03258e-05 0)
(0.000182806 1.06443e-05 0)
(0.00017904 1.09533e-05 0)
(0.00017517 1.1252e-05 0)
(0.000171198 1.15399e-05 0)
(0.000167129 1.18164e-05 0)
(0.000162966 1.20806e-05 0)
(0.000158714 1.23318e-05 0)
(0.000154378 1.25693e-05 0)
(0.000149963 1.27924e-05 0)
(0.000145474 1.30002e-05 0)
(0.000140916 1.31919e-05 0)
(0.000136296 1.33666e-05 0)
(0.000131619 1.35234e-05 0)
(0.000126892 1.36616e-05 0)
(0.000122121 1.378e-05 0)
(0.000117313 1.38777e-05 0)
(0.000112477 1.39537e-05 0)
(0.000107619 1.4007e-05 0)
(0.000102747 1.40368e-05 0)
(9.78696e-05 1.40417e-05 0)
(9.2996e-05 1.40208e-05 0)
(8.81349e-05 1.39729e-05 0)
(8.32956e-05 1.38971e-05 0)
(7.84877e-05 1.37922e-05 0)
(7.37215e-05 1.36572e-05 0)
(6.90074e-05 1.34908e-05 0)
(6.4356e-05 1.32921e-05 0)
(5.97783e-05 1.306e-05 0)
(5.52856e-05 1.27934e-05 0)
(5.08896e-05 1.24914e-05 0)
(4.6602e-05 1.2153e-05 0)
(4.24348e-05 1.17775e-05 0)
(3.84002e-05 1.13642e-05 0)
(3.45107e-05 1.09125e-05 0)
(3.07786e-05 1.0422e-05 0)
(2.72161e-05 9.8926e-06 0)
(2.38353e-05 9.32467e-06 0)
(2.06481e-05 8.71877e-06 0)
(1.76662e-05 8.07594e-06 0)
(1.49001e-05 7.39805e-06 0)
(1.23596e-05 6.68792e-06 0)
(1.00533e-05 5.94929e-06 0)
(7.98863e-06 5.1873e-06 0)
(6.17071e-06 4.40909e-06 0)
(4.60229e-06 3.62413e-06 0)
(3.28294e-06 2.84474e-06 0)
(2.20853e-06 2.08726e-06 0)
(1.3704e-06 1.3734e-06 0)
(7.54933e-07 7.30389e-07 0)
(3.41616e-07 1.94711e-07 0)
(1.02299e-07 -1.8903e-07 0)
(2.22543e-10 -3.63035e-07 0)
(-1.08524e-08 -2.51313e-07 0)
(7.93989e-10 2.39355e-07 0)
(6.68045e-08 2.62705e-07 0)
(2.78759e-07 -5.32225e-08 0)
(6.69658e-07 -6.16505e-07 0)
(1.27056e-06 -1.3607e-06 0)
(2.10633e-06 -2.23471e-06 0)
(3.19567e-06 -3.1953e-06 0)
(4.55169e-06 -4.20937e-06 0)
(6.18146e-06 -5.25101e-06 0)
(8.08806e-06 -6.2998e-06 0)
(1.02719e-05 -7.33933e-06 0)
(1.27299e-05 -8.35802e-06 0)
(1.5456e-05 -9.34681e-06 0)
(1.84422e-05 -1.02984e-05 0)
(2.16795e-05 -1.12074e-05 0)
(2.5157e-05 -1.207e-05 0)
(2.88624e-05 -1.28843e-05 0)
(3.27837e-05 -1.36486e-05 0)
(3.69082e-05 -1.43611e-05 0)
(4.12224e-05 -1.50218e-05 0)
(4.57123e-05 -1.56307e-05 0)
(5.03644e-05 -1.61883e-05 0)
(5.51652e-05 -1.66951e-05 0)
(6.01013e-05 -1.71518e-05 0)
(6.5159e-05 -1.75597e-05 0)
(7.03249e-05 -1.792e-05 0)
(7.55863e-05 -1.82339e-05 0)
(8.09306e-05 -1.85026e-05 0)
(8.63453e-05 -1.87274e-05 0)
(9.18185e-05 -1.891e-05 0)
(9.73381e-05 -1.90519e-05 0)
(0.000102893 -1.91543e-05 0)
(0.000108473 -1.92187e-05 0)
(0.000114067 -1.92467e-05 0)
(0.000119664 -1.92397e-05 0)
(0.000125255 -1.91993e-05 0)
(0.00013083 -1.91268e-05 0)
(0.000136381 -1.90234e-05 0)
(0.000141899 -1.88905e-05 0)
(0.000147375 -1.87295e-05 0)
(0.000152802 -1.85419e-05 0)
(0.000158171 -1.83288e-05 0)
(0.000163476 -1.80915e-05 0)
(0.00016871 -1.78309e-05 0)
(0.000173866 -1.75484e-05 0)
(0.000178937 -1.72452e-05 0)
(0.000183919 -1.69224e-05 0)
(0.000188804 -1.65809e-05 0)
(0.000193589 -1.62217e-05 0)
(0.000198268 -1.58458e-05 0)
(0.000202835 -1.54541e-05 0)
(0.000207287 -1.50476e-05 0)
(0.00021162 -1.46271e-05 0)
(0.000215828 -1.41936e-05 0)
(0.000219909 -1.37477e-05 0)
(0.000223859 -1.32901e-05 0)
(0.000227674 -1.28217e-05 0)
(0.000231352 -1.23431e-05 0)
(0.000234888 -1.1855e-05 0)
(0.000238282 -1.13582e-05 0)
(0.00024153 -1.0853e-05 0)
(0.000244629 -1.03401e-05 0)
(0.000247578 -9.82007e-06 0)
(0.000250374 -9.29344e-06 0)
(0.000253015 -8.76075e-06 0)
(0.0002555 -8.22245e-06 0)
(0.000257827 -7.67896e-06 0)
(0.000259995 -7.13077e-06 0)
(0.000262001 -6.57825e-06 0)
(0.000263846 -6.02176e-06 0)
(0.000265527 -5.46166e-06 0)
(0.000267044 -4.89843e-06 0)
(0.000268396 -4.3325e-06 0)