/*--------------------------------*- C++ -*----------------------------------*\
  =========                 |
  \\      /  F ield         | OpenFOAM: The Open Source CFD Toolbox
   \\    /   O peration     | Website:  https://openfoam.org
    \\  /    A nd           | Version:  7
     \\/     M anipulation  |
\*---------------------------------------------------------------------------*/
FoamFile
{
    version     2.0;
    format      ascii;
    class       surfaceScalarField;
    location    "0.45";
    object      phi;
}
// * * * * * * * * * * * * * * * * * * * * * * * * * * * * * * * * * * * * * //

dimensions      [0 3 -1 0 0 0 0];

internalField   nonuniform List<scalar> 
25360
(
1.14417e-10
-1.14228e-10
3.59636e-10
-2.45219e-10
6.04252e-10
-2.44616e-10
7.65123e-10
-1.60872e-10
7.98109e-10
-3.29862e-11
6.81401e-10
1.16709e-10
4.06366e-10
2.75036e-10
-2.76675e-11
4.34034e-10
-6.16568e-10
5.889e-10
-1.35331e-09
7.36743e-10
-2.22914e-09
8.75824e-10
-3.23427e-09
1.00513e-09
-4.3584e-09
1.12413e-09
-5.59102e-09
1.23262e-09
-6.92159e-09
1.33058e-09
-8.33976e-09
1.41817e-09
-9.83541e-09
1.49565e-09
-1.13988e-08
1.56336e-09
-1.30205e-08
1.62169e-09
-1.46915e-08
1.67105e-09
-1.64034e-08
1.71189e-09
-1.81481e-08
1.74469e-09
-1.9918e-08
1.76992e-09
-2.1706e-08
1.78804e-09
-2.35056e-08
1.79954e-09
-2.53105e-08
1.80489e-09
-2.7115e-08
1.80454e-09
-2.8914e-08
1.79894e-09
-3.07025e-08
1.78853e-09
-3.24762e-08
1.77374e-09
-3.42312e-08
1.75498e-09
-3.59638e-08
1.73262e-09
-3.76709e-08
1.70706e-09
-3.93495e-08
1.67864e-09
-4.09972e-08
1.6477e-09
-4.26118e-08
1.61456e-09
-4.41913e-08
1.57953e-09
-4.57342e-08
1.54289e-09
-4.72391e-08
1.5049e-09
-4.87049e-08
1.46581e-09
-5.01308e-08
1.42585e-09
-5.1516e-08
1.38523e-09
-5.28602e-08
1.34415e-09
-5.41629e-08
1.30279e-09
-5.54242e-08
1.2613e-09
-5.66441e-08
1.21984e-09
-5.78226e-08
1.17854e-09
-5.89601e-08
1.13751e-09
-6.0057e-08
1.09687e-09
-6.11137e-08
1.05671e-09
-6.21308e-08
1.01711e-09
-6.31089e-08
9.7813e-10
-6.40488e-08
9.39838e-10
-6.49511e-08
9.0228e-10
-6.58166e-08
8.65495e-10
-6.66461e-08
8.2951e-10
-6.74404e-08
7.94347e-10
-6.82004e-08
7.60019e-10
-6.8927e-08
7.26529e-10
-6.96208e-08
6.93876e-10
-7.02829e-08
6.62051e-10
-7.09139e-08
6.31041e-10
-7.15148e-08
6.00824e-10
-7.20861e-08
5.71374e-10
-7.26288e-08
5.4266e-10
-7.31434e-08
5.14646e-10
-7.36307e-08
4.87294e-10
-7.40913e-08
4.6056e-10
-7.45257e-08
4.34398e-10
-7.49344e-08
4.08755e-10
-7.5318e-08
3.83578e-10
-7.56768e-08
3.5881e-10
-7.60112e-08
3.34391e-10
-7.63215e-08
3.10262e-10
-7.66079e-08
2.86358e-10
-7.68705e-08
2.62614e-10
-7.71094e-08
2.3896e-10
-7.73248e-08
2.15328e-10
-7.75164e-08
1.91647e-10
-7.76842e-08
1.67846e-10
-7.78281e-08
1.43852e-10
-7.79477e-08
1.19593e-10
-7.80427e-08
9.49922e-11
-7.81127e-08
6.99766e-11
-7.81571e-08
4.44712e-11
-7.81755e-08
1.84021e-11
-7.81672e-08
-8.30427e-12
-7.81315e-08
-3.5721e-11
-7.80676e-08
-6.39202e-11
-7.79746e-08
-9.29725e-11
-7.78517e-08
-1.22947e-10
-7.76978e-08
-1.5391e-10
-7.75118e-08
-1.85925e-10
-7.72928e-08
-2.19055e-10
-7.70394e-08
-2.53356e-10
-7.67506e-08
-2.88881e-10
-7.64249e-08
-3.25681e-10
-7.60611e-08
-3.63798e-10
-7.56578e-08
-4.03271e-10
-7.52137e-08
-4.44131e-10
-7.47273e-08
-4.86403e-10
-7.41972e-08
-5.30103e-10
-7.36219e-08
-5.75239e-10
-7.30001e-08
-6.2181e-10
-7.23303e-08
-6.69805e-10
-7.16111e-08
-7.19199e-10
-7.08412e-08
-7.6996e-10
-7.00191e-08
-8.2204e-10
-6.91438e-08
-8.75377e-10
-6.82139e-08
-9.29897e-10
-6.72283e-08
-9.85509e-10
-6.61862e-08
-1.04211e-09
-6.50867e-08
-1.09956e-09
-6.39289e-08
-1.15774e-09
-6.27125e-08
-1.21648e-09
-6.14369e-08
-1.27559e-09
-6.0102e-08
-1.33488e-09
-5.87079e-08
-1.39414e-09
-5.72547e-08
-1.45311e-09
-5.57432e-08
-1.51155e-09
-5.41741e-08
-1.56915e-09
-5.25484e-08
-1.62563e-09
-5.08678e-08
-1.68065e-09
-4.91339e-08
-1.73387e-09
-4.7349e-08
-1.78492e-09
-4.55156e-08
-1.83341e-09
-4.36366e-08
-1.87893e-09
-4.17156e-08
-1.92107e-09
-3.97562e-08
-1.95936e-09
-3.77629e-08
-1.99336e-09
-3.57403e-08
-2.02259e-09
-3.36937e-08
-2.04657e-09
-3.16289e-08
-2.0648e-09
-2.95521e-08
-2.07676e-09
-2.74702e-08
-2.08196e-09
-2.53903e-08
-2.07987e-09
-2.33203e-08
-2.06998e-09
-2.12685e-08
-2.05178e-09
-1.92438e-08
-2.02476e-09
-1.72554e-08
-1.98842e-09
-1.53131e-08
-1.94229e-09
-1.34272e-08
-1.8859e-09
-1.16084e-08
-1.81883e-09
-9.86769e-09
-1.74067e-09
-8.2166e-09
-1.65108e-09
-6.66681e-09
-1.54979e-09
-5.23023e-09
-1.43658e-09
-3.91885e-09
-1.31138e-09
-2.74459e-09
-1.17427e-09
-1.71905e-09
-1.02554e-09
-8.53212e-10
-8.6584e-10
-1.56903e-10
-6.96309e-10
3.61959e-10
-5.18863e-10
6.98624e-10
-3.36667e-10
8.53586e-10
-1.54964e-10
8.36081e-10
1.75026e-11
6.69931e-10
1.6615e-10
4.0389e-10
2.6604e-10
1.30768e-10
2.73122e-10
1.30767e-10
2.45512e-10
-3.5974e-10
6.34109e-10
-6.33815e-10
9.5016e-10
-5.60667e-10
1.04695e-09
-2.57663e-10
8.28633e-10
1.85332e-10
2.3871e-10
7.06631e-10
-7.51191e-10
1.26494e-09
-2.1501e-09
1.83294e-09
-3.95388e-09
2.39269e-09
-6.14957e-09
2.93243e-09
-8.7183e-09
3.44454e-09
-1.16374e-08
3.92419e-09
-1.48817e-08
4.36844e-09
-1.84248e-08
4.77572e-09
-2.22396e-08
5.14541e-09
-2.6299e-08
5.47758e-09
-3.05761e-08
5.77277e-09
-3.50447e-08
6.03192e-09
-3.96792e-08
6.25619e-09
-4.44551e-08
6.44698e-09
-4.9349e-08
6.60579e-09
-5.43385e-08
6.73423e-09
-5.94026e-08
6.83397e-09
-6.45213e-08
6.90671e-09
-6.96759e-08
6.95416e-09
-7.4849e-08
6.97805e-09
-8.00246e-08
6.98006e-09
-8.51875e-08
6.96187e-09
-9.03241e-08
6.9251e-09
-9.54217e-08
6.87135e-09
-1.00469e-07
6.80213e-09
-1.05455e-07
6.71895e-09
-1.10371e-07
6.6232e-09
-1.15209e-07
6.51625e-09
-1.19961e-07
6.39939e-09
-1.2462e-07
6.27385e-09
-1.29181e-07
6.14077e-09
-1.33639e-07
6.00124e-09
-1.37991e-07
5.85629e-09
-1.42232e-07
5.70687e-09
-1.4636e-07
5.55387e-09
-1.50373e-07
5.39811e-09
-1.54269e-07
5.24034e-09
-1.58047e-07
5.08127e-09
-1.61708e-07
4.92153e-09
-1.6525e-07
4.7617e-09
-1.68673e-07
4.60229e-09
-1.7198e-07
4.44378e-09
-1.75169e-07
4.28659e-09
-1.78244e-07
4.13108e-09
-1.81204e-07
3.97757e-09
-1.84052e-07
3.82633e-09
-1.8679e-07
3.67761e-09
-1.89419e-07
3.5316e-09
-1.91942e-07
3.38844e-09
-1.94361e-07
3.24827e-09
-1.96678e-07
3.11117e-09
-1.98895e-07
2.97719e-09
-2.01015e-07
2.84636e-09
-2.0304e-07
2.71868e-09
-2.04972e-07
2.59412e-09
-2.06813e-07
2.47263e-09
-2.08567e-07
2.35413e-09
-2.10234e-07
2.23854e-09
-2.11817e-07
2.12573e-09
-2.13318e-07
2.01558e-09
-2.14739e-07
1.90793e-09
-2.16081e-07
1.80262e-09
-2.17346e-07
1.69947e-09
-2.18535e-07
1.5983e-09
-2.19651e-07
1.49889e-09
-2.20693e-07
1.40103e-09
-2.21663e-07
1.30449e-09
-2.22562e-07
1.20904e-09
-2.2339e-07
1.11443e-09
-2.24147e-07
1.02042e-09
-2.24835e-07
9.26741e-10
-2.25453e-07
8.33131e-10
-2.26001e-07
7.39319e-10
-2.26478e-07
6.45032e-10
-2.26884e-07
5.49991e-10
-2.27218e-07
4.53917e-10
-2.2748e-07
3.56526e-10
-2.27667e-07
2.57533e-10
-2.2778e-07
1.56656e-10
-2.27815e-07
5.3611e-11
-2.27771e-07
-5.18827e-11
-2.27647e-07
-1.60102e-10
-2.2744e-07
-2.71321e-10
-2.27147e-07
-3.85806e-10
-2.26766e-07
-5.03818e-10
-2.26294e-07
-6.25608e-10
-2.25729e-07
-7.51417e-10
-2.25066e-07
-8.81473e-10
-2.24304e-07
-1.01599e-09
-2.23437e-07
-1.15517e-09
-2.22464e-07
-1.2992e-09
-2.21379e-07
-1.44822e-09
-2.2018e-07
-1.60239e-09
-2.18863e-07
-1.7618e-09
-2.17422e-07
-1.92656e-09
-2.15856e-07
-2.0967e-09
-2.14159e-07
-2.27226e-09
-2.12327e-07
-2.45321e-09
-2.10358e-07
-2.6395e-09
-2.08246e-07
-2.83103e-09
-2.05988e-07
-3.02766e-09
-2.03581e-07
-3.22918e-09
-2.01021e-07
-3.43537e-09
-1.98305e-07
-3.64591e-09
-1.9543e-07
-3.86045e-09
-1.92394e-07
-4.07856e-09
-1.89193e-07
-4.29976e-09
-1.85828e-07
-4.52349e-09
-1.82295e-07
-4.74912e-09
-1.78595e-07
-4.97597e-09
-1.74726e-07
-5.20325e-09
-1.7069e-07
-5.43011e-09
-1.66488e-07
-5.65563e-09
-1.62121e-07
-5.8788e-09
-1.57591e-07
-6.09853e-09
-1.52903e-07
-6.31364e-09
-1.48061e-07
-6.5229e-09
-1.4307e-07
-6.72497e-09
-1.37936e-07
-6.91845e-09
-1.32668e-07
-7.10187e-09
-1.27273e-07
-7.27366e-09
-1.21762e-07
-7.43223e-09
-1.16146e-07
-7.57587e-09
-1.10436e-07
-7.70287e-09
-1.04647e-07
-7.81144e-09
-9.8794e-08
-7.89974e-09
-9.28929e-08
-7.96591e-09
-8.69616e-08
-8.00807e-09
-8.10192e-08
-8.02431e-09
-7.50864e-08
-8.01272e-09
-6.9185e-08
-7.97142e-09
-6.33382e-08
-7.89852e-09
-5.75708e-08
-7.7922e-09
-5.19085e-08
-7.65068e-09
-4.63786e-08
-7.47228e-09
-4.1009e-08
-7.25541e-09
-3.58292e-08
-6.99864e-09
-3.08692e-08
-6.70072e-09
-2.61597e-08
-6.36062e-09
-2.17318e-08
-5.97763e-09
-1.76169e-08
-5.55146e-09
-1.3846e-08
-5.08235e-09
-1.0449e-08
-4.57126e-09
-7.45435e-09
-4.02018e-09
-4.88766e-09
-3.43253e-09
-2.77018e-09
-2.81379e-09
-1.11661e-09
-2.17243e-09
6.81373e-11
-1.52142e-09
7.93697e-10
-8.80526e-10
1.09113e-09
-2.79934e-10
1.02284e-09
2.34439e-10
6.95404e-10
5.9347e-10
2.73148e-10
6.95375e-10
4.03915e-10
2.45868e-10
-6.05608e-10
5.63617e-10
-9.51564e-10
6.98041e-10
-6.95091e-10
4.75141e-10
-3.47621e-11
-2.24785e-10
8.85258e-10
-1.47763e-09
1.95947e-09
-3.32527e-09
3.11258e-09
-5.78427e-09
4.29193e-09
-8.85263e-09
5.46105e-09
-1.2515e-08
6.59482e-09
-1.67467e-08
7.67619e-09
-2.15163e-08
8.69379e-09
-2.67882e-08
9.64032e-09
-3.25239e-08
1.05115e-08
-3.86835e-08
1.1305e-08
-4.52263e-08
1.20204e-08
-5.21117e-08
1.26582e-08
-5.92996e-08
1.32198e-08
-6.67508e-08
1.37074e-08
-7.44275e-08
1.41237e-08
-8.22932e-08
1.44714e-08
-9.03129e-08
1.4754e-08
-9.84537e-08
1.49747e-08
-1.06684e-07
1.5137e-08
-1.14974e-07
1.52446e-08
-1.23297e-07
1.53011e-08
-1.31627e-07
1.53099e-08
-1.3994e-07
1.52746e-08
-1.48214e-07
1.51987e-08
-1.56428e-07
1.50856e-08
-1.64564e-07
1.49386e-08
-1.72606e-07
1.47609e-08
-1.80539e-07
1.45555e-08
-1.88348e-07
1.43253e-08
-1.96021e-07
1.40731e-08
-2.03549e-07
1.38016e-08
-2.10922e-07
1.35134e-08
-2.18131e-07
1.32107e-08
-2.25171e-07
1.28958e-08
-2.32035e-07
1.25708e-08
-2.38719e-07
1.22377e-08
-2.45219e-07
1.18982e-08
-2.51532e-07
1.15539e-08
-2.57657e-07
1.12065e-08
-2.63593e-07
1.08574e-08
-2.69339e-07
1.05077e-08
-2.74896e-07
1.01587e-08
-2.80263e-07
9.81137e-09
-2.85443e-07
9.46667e-09
-2.90438e-07
9.12541e-09
-2.95248e-07
8.7883e-09
-2.99878e-07
8.45596e-09
-3.04329e-07
8.1289e-09
-3.08605e-07
7.80757e-09
-3.12709e-07
7.49232e-09
-3.16644e-07
7.18343e-09
-3.20414e-07
6.88109e-09
-3.24022e-07
6.58544e-09
-3.27473e-07
6.29654e-09
-3.30768e-07
6.01441e-09
-3.33913e-07
5.73898e-09
-3.36911e-07
5.47017e-09
-3.39764e-07
5.2078e-09
-3.42478e-07
4.9517e-09
-3.45053e-07
4.7016e-09
-3.47495e-07
4.45723e-09
-3.49805e-07
4.21827e-09
-3.51987e-07
3.98437e-09
-3.54043e-07
3.75513e-09
-3.55975e-07
3.53014e-09
-3.57785e-07
3.30897e-09
-3.59475e-07
3.09113e-09
-3.61047e-07
2.87615e-09
-3.62501e-07
2.66351e-09
-3.63839e-07
2.45268e-09
-3.65062e-07
2.24312e-09
-3.66169e-07
2.03426e-09
-3.67162e-07
1.82553e-09
-3.68039e-07
1.61633e-09
-3.688e-07
1.40609e-09
-3.69444e-07
1.19418e-09
-3.6997e-07
9.80001e-10
-3.70377e-07
7.6294e-10
-3.70661e-07
5.42381e-10
-3.70823e-07
3.17706e-10
-3.70857e-07
8.83045e-11
-3.70763e-07
-1.46433e-10
-3.70536e-07
-3.87106e-10
-3.70173e-07
-6.34305e-10
-3.6967e-07
-8.88606e-10
-3.69023e-07
-1.15057e-09
-3.68228e-07
-1.42074e-09
-3.6728e-07
-1.69962e-09
-3.66174e-07
-1.98772e-09
-3.64904e-07
-2.28548e-09
-3.63466e-07
-2.59334e-09
-3.61853e-07
-2.91167e-09
-3.60061e-07
-3.24081e-09
-3.58082e-07
-3.58105e-09
-3.55911e-07
-3.93262e-09
-3.53542e-07
-4.29569e-09
-3.50969e-07
-4.67036e-09
-3.48184e-07
-5.05666e-09
-3.45183e-07
-5.45453e-09
-3.41959e-07
-5.86384e-09
-3.38505e-07
-6.28436e-09
-3.34817e-07
-6.71576e-09
-3.30889e-07
-7.15759e-09
-3.26715e-07
-7.60931e-09
-3.2229e-07
-8.07023e-09
-3.17611e-07
-8.53956e-09
-3.12674e-07
-9.01636e-09
-3.07474e-07
-9.49955e-09
-3.02009e-07
-9.98791e-09
-2.96278e-07
-1.04801e-08
-2.9028e-07
-1.09745e-08
-2.84014e-07
-1.14694e-08
-2.77481e-07
-1.19631e-08
-2.70683e-07
-1.24535e-08
-2.63623e-07
-1.29383e-08
-2.56307e-07
-1.34152e-08
-2.48739e-07
-1.38816e-08
-2.40927e-07
-1.43349e-08
-2.3288e-07
-1.47722e-08
-2.24608e-07
-1.51903e-08
-2.16123e-07
-1.55862e-08
-2.07441e-07
-1.59564e-08
-1.98575e-07
-1.62975e-08
-1.89545e-07
-1.66059e-08
-1.8037e-07
-1.68777e-08
-1.71073e-07
-1.71093e-08
-1.61676e-07
-1.72966e-08
-1.52206e-07
-1.74357e-08
-1.42691e-07
-1.75225e-08
-1.33163e-07
-1.7553e-08
-1.23652e-07
-1.75233e-08
-1.14194e-07
-1.74291e-08
-1.04826e-07
-1.72668e-08
-9.5586e-08
-1.70324e-08
-8.65144e-08
-1.67223e-08
-7.76535e-08
-1.63331e-08
-6.90473e-08
-1.58617e-08
-6.07407e-08
-1.53052e-08
-5.27801e-08
-1.46613e-08
-4.52123e-08
-1.39284e-08
-3.80846e-08
-1.31053e-08
-3.14439e-08
-1.21922e-08
-2.53359e-08
-1.11903e-08
-1.98045e-08
-1.01027e-08
-1.489e-08
-8.93461e-09
-1.0628e-08
-7.69457e-09
-7.04633e-09
-6.39547e-09
-4.16241e-09
-5.05635e-09
-1.97878e-09
-3.70504e-09
-4.77421e-10
-2.38189e-09
3.87903e-10
-1.14526e-09
7.01341e-10
-7.90013e-11
5.96178e-10
6.98629e-10
2.66937e-10
1.02461e-09
6.70852e-10
1.63818e-10
-7.69427e-10
2.64902e-10
-1.05265e-09
4.448e-11
-4.74669e-10
-6.77834e-10
6.87553e-10
-2.02881e-09
2.23624e-09
-4.09169e-09
4.02235e-09
-6.91458e-09
5.93546e-09
-1.0518e-08
7.89535e-09
-1.49012e-08
9.84428e-09
-2.00475e-08
1.17411e-08
-2.5928e-08
1.35567e-08
-3.25054e-08
1.52712e-08
-3.97361e-08
1.68711e-08
-4.75727e-08
1.8348e-08
-5.59649e-08
1.96972e-08
-6.48613e-08
2.09168e-08
-7.42099e-08
2.20068e-08
-8.39592e-08
2.29691e-08
-9.40586e-08
2.38068e-08
-1.04459e-07
2.45236e-08
-1.15111e-07
2.51243e-08
-1.25971e-07
2.56139e-08
-1.36995e-07
2.5998e-08
-1.4814e-07
2.62823e-08
-1.59368e-07
2.64726e-08
-1.70642e-07
2.6575e-08
-1.81927e-07
2.65954e-08
-1.93193e-07
2.65398e-08
-2.04408e-07
2.6414e-08
-2.15546e-07
2.62238e-08
-2.26582e-07
2.59747e-08
-2.37493e-07
2.56722e-08
-2.4826e-07
2.53215e-08
-2.58862e-07
2.49276e-08
-2.69284e-07
2.44953e-08
-2.79512e-07
2.40292e-08
-2.89532e-07
2.35335e-08
-2.99334e-07
2.30125e-08
-3.08908e-07
2.24699e-08
-3.18246e-07
2.19093e-08
-3.27342e-07
2.1334e-08
-3.36192e-07
2.07473e-08
-3.4479e-07
2.01521e-08
-3.53134e-07
1.95508e-08
-3.61223e-07
1.89461e-08
-3.69055e-07
1.83401e-08
-3.76631e-07
1.77349e-08
-3.83952e-07
1.71322e-08
-3.91019e-07
1.65336e-08
-3.97834e-07
1.59407e-08
-4.04401e-07
1.53546e-08
-4.10721e-07
1.47765e-08
-4.168e-07
1.42072e-08
-4.2264e-07
1.36476e-08
-4.28246e-07
1.30983e-08
-4.33622e-07
1.25597e-08
-4.38773e-07
1.20322e-08
-4.43704e-07
1.15162e-08
-4.48419e-07
1.10116e-08
-4.52923e-07
1.05185e-08
-4.57221e-07
1.00369e-08
-4.61317e-07
9.56663e-09
-4.65217e-07
9.10736e-09
-4.68924e-07
8.65878e-09
-4.72443e-07
8.2205e-09
-4.75778e-07
7.79202e-09
-4.78932e-07
7.3728e-09
-4.8191e-07
6.96224e-09
-4.84715e-07
6.55967e-09
-4.87349e-07
6.16439e-09
-4.89816e-07
5.77564e-09
-4.92117e-07
5.3926e-09
-4.94255e-07
5.01445e-09
-4.96232e-07
4.64029e-09
-4.98049e-07
4.26922e-09
-4.99706e-07
3.9003e-09
-5.01204e-07
3.53255e-09
-5.02544e-07
3.165e-09
-5.03724e-07
2.79662e-09
-5.04744e-07
2.4264e-09
-5.05603e-07
2.05329e-09
-5.063e-07
1.67624e-09
-5.06831e-07
1.2942e-09
-5.07195e-07
9.06104e-10
-5.07388e-07
5.10902e-10
-5.07407e-07
1.07539e-10
-5.07248e-07
-3.05028e-10
-5.06908e-07
-7.27828e-10
-5.0638e-07
-1.16187e-09
-5.05661e-07
-1.60815e-09
-5.04744e-07
-2.06761e-09
-5.03623e-07
-2.54118e-09
-5.02293e-07
-3.02974e-09
-5.00747e-07
-3.53412e-09
-4.98977e-07
-4.05511e-09
-4.96977e-07
-4.5934e-09
-4.94739e-07
-5.14966e-09
-4.92255e-07
-5.72444e-09
-4.89518e-07
-6.31822e-09
-4.86519e-07
-6.93137e-09
-4.83251e-07
-7.56418e-09
-4.79704e-07
-8.21679e-09
-4.75872e-07
-8.88924e-09
-4.71745e-07
-9.5814e-09
-4.67316e-07
-1.0293e-08
-4.62577e-07
-1.10237e-08
-4.5752e-07
-1.17728e-08
-4.52138e-07
-1.25395e-08
-4.46424e-07
-1.33229e-08
-4.40373e-07
-1.41218e-08
-4.33977e-07
-1.49347e-08
-4.27234e-07
-1.57601e-08
-4.20137e-07
-1.65961e-08
-4.12684e-07
-1.74405e-08
-4.04874e-07
-1.82909e-08
-3.96703e-07
-1.91447e-08
-3.88174e-07
-1.99988e-08
-3.79287e-07
-2.08502e-08
-3.70045e-07
-2.16953e-08
-3.60453e-07
-2.25303e-08
-3.50517e-07
-2.33511e-08
-3.40245e-07
-2.41533e-08
-3.29648e-07
-2.49322e-08
-3.18737e-07
-2.56829e-08
-3.07528e-07
-2.64002e-08
-2.96035e-07
-2.70785e-08
-2.8428e-07
-2.77122e-08
-2.72282e-07
-2.82952e-08
-2.60066e-07
-2.88214e-08
-2.4766e-07
-2.92844e-08
-2.35091e-07
-2.96777e-08
-2.22393e-07
-2.99946e-08
-2.09601e-07
-3.02284e-08
-1.96751e-07
-3.03722e-08
-1.83885e-07
-3.04192e-08
-1.71045e-07
-3.03627e-08
-1.58279e-07
-3.01959e-08
-1.45633e-07
-2.99125e-08
-1.33159e-07
-2.9506e-08
-1.20911e-07
-2.89705e-08
-1.08944e-07
-2.83005e-08
-9.73145e-08
-2.7491e-08
-8.60819e-08
-2.65377e-08
-7.5306e-08
-2.54373e-08
-6.50471e-08
-2.41872e-08
-5.53657e-08
-2.27868e-08
-4.63211e-08
-2.12368e-08
-3.79709e-08
-1.95405e-08
-3.03695e-08
-1.77041e-08
-2.35662e-08
-1.57379e-08
-1.76033e-08
-1.36574e-08
-1.25134e-08
-1.14854e-08
-8.31547e-09
-9.25431e-09
-5.01053e-09
-7.00998e-09
-2.57601e-09
-4.81642e-09
-9.58606e-10
-2.76266e-09
-6.59085e-11
-9.717e-10
2.4304e-10
3.89678e-10
1.69036e-10
1.09861e-09
8.39887e-10
3.7795e-11
-8.07221e-10
-1.74058e-10
-8.40796e-10
-8.70401e-10
2.21672e-10
-2.22133e-09
2.03848e-09
-4.34863e-09
4.36355e-09
-7.33387e-09
7.00759e-09
-1.1225e-08
9.82659e-09
-1.60426e-08
1.27129e-08
-2.17851e-08
1.55868e-08
-2.84337e-08
1.83897e-08
-3.59564e-08
2.10793e-08
-4.43107e-08
2.36255e-08
-5.34471e-08
2.60075e-08
-6.33107e-08
2.82116e-08
-7.38432e-08
3.02297e-08
-8.49843e-08
3.20579e-08
-9.66729e-08
3.36954e-08
-1.08848e-07
3.5144e-08
-1.21448e-07
3.64074e-08
-1.34416e-07
3.7491e-08
-1.47692e-07
3.84009e-08
-1.61223e-07
3.91445e-08
-1.74954e-07
3.97296e-08
-1.88837e-07
4.01644e-08
-2.02822e-07
4.04576e-08
-2.16864e-07
4.06179e-08
-2.30923e-07
4.0654e-08
-2.44958e-07
4.05749e-08
-2.58933e-07
4.03893e-08
-2.72815e-07
4.01055e-08
-2.86573e-07
3.97322e-08
-3.00178e-07
3.92773e-08
-3.13605e-07
3.87487e-08
-3.26831e-07
3.81539e-08
-3.39836e-07
3.75003e-08
-3.52601e-07
3.67946e-08
-3.65111e-07
3.60435e-08
-3.77352e-07
3.52531e-08
-3.89311e-07
3.44292e-08
-4.00979e-07
3.35775e-08
-4.12348e-07
3.27029e-08
-4.23411e-07
3.18102e-08
-4.34163e-07
3.09038e-08
-4.446e-07
2.99879e-08
-4.5472e-07
2.90661e-08
-4.64522e-07
2.81418e-08
-4.74005e-07
2.72181e-08
-4.8317e-07
2.62978e-08
-4.9202e-07
2.53834e-08
-5.00556e-07
2.44771e-08
-5.08783e-07
2.35808e-08
-5.16702e-07
2.26961e-08
-5.2432e-07
2.18247e-08
-5.3164e-07
2.09675e-08
-5.38667e-07
2.01257e-08
-5.45407e-07
1.92999e-08
-5.51866e-07
1.84908e-08
-5.58048e-07
1.76987e-08
-5.63961e-07
1.69239e-08
-5.69609e-07
1.61665e-08
-5.74998e-07
1.54263e-08
-5.80134e-07
1.4703e-08
-5.85023e-07
1.39964e-08
-5.8967e-07
1.33059e-08
-5.94081e-07
1.26309e-08
-5.98259e-07
1.19707e-08
-6.02211e-07
1.13245e-08
-6.0594e-07
1.06913e-08
-6.09451e-07
1.00702e-08
-6.12746e-07
9.46006e-09
-6.1583e-07
8.85979e-09
-6.18706e-07
8.26814e-09
-6.21375e-07
7.68385e-09
-6.23841e-07
7.10558e-09
-6.26103e-07
6.53195e-09
-6.28165e-07
5.96153e-09
-6.30025e-07
5.39286e-09
-6.31684e-07
4.82445e-09
-6.33143e-07
4.25474e-09
-6.34398e-07
3.68221e-09
-6.3545e-07
3.10526e-09
-6.36296e-07
2.52231e-09
-6.36934e-07
1.93177e-09
-6.3736e-07
1.33202e-09
-6.3757e-07
7.21475e-10
-6.37562e-07
9.85401e-11
-6.37328e-07
-5.38359e-10
-6.36865e-07
-1.19078e-09
-6.36167e-07
-1.86023e-09
-6.35227e-07
-2.54822e-09
-6.34038e-07
-3.25617e-09
-6.32594e-07
-3.98548e-09
-6.30886e-07
-4.73746e-09
-6.28907e-07
-5.51336e-09
-6.26648e-07
-6.31435e-09
-6.241e-07
-7.14148e-09
-6.21254e-07
-7.99571e-09
-6.181e-07
-8.87788e-09
-6.1463e-07
-9.78869e-09
-6.10832e-07
-1.07287e-08
-6.06698e-07
-1.16983e-08
-6.02218e-07
-1.26976e-08
-5.9738e-07
-1.37267e-08
-5.92176e-07
-1.47855e-08
-5.86596e-07
-1.58733e-08
-5.8063e-07
-1.69897e-08
-5.74269e-07
-1.81336e-08
-5.67504e-07
-1.93038e-08
-5.60328e-07
-2.04989e-08
-5.52733e-07
-2.17169e-08
-5.44712e-07
-2.29557e-08
-5.3626e-07
-2.42128e-08
-5.27371e-07
-2.54853e-08
-5.18041e-07
-2.67699e-08
-5.08269e-07
-2.8063e-08
-4.98053e-07
-2.93606e-08
-4.87394e-07
-3.06581e-08
-4.76294e-07
-3.19506e-08
-4.64756e-07
-3.32329e-08
-4.52787e-07
-3.4499e-08
-4.40395e-07
-3.57429e-08
-4.27591e-07
-3.69579e-08
-4.14386e-07
-3.81369e-08
-4.00796e-07
-3.92725e-08
-3.8684e-07
-4.03566e-08
-3.72537e-07
-4.13811e-08
-3.57912e-07
-4.23373e-08
-3.42991e-07
-4.32162e-08
-3.27804e-07
-4.40085e-08
-3.12384e-07
-4.47047e-08
-2.96767e-07
-4.52949e-08
-2.80992e-07
-4.57692e-08
-2.65103e-07
-4.61174e-08
-2.49146e-07
-4.63296e-08
-2.3317e-07
-4.63954e-08
-2.17227e-07
-4.6305e-08
-2.01375e-07
-4.60484e-08
-1.85671e-07
-4.56161e-08
-1.70178e-07
-4.4999e-08
-1.5496e-07
-4.41885e-08
-1.40084e-07
-4.31766e-08
-1.25619e-07
-4.19565e-08
-1.11634e-07
-4.05222e-08
-9.82019e-08
-3.88694e-08
-8.53938e-08
-3.69953e-08
-7.3281e-08
-3.48996e-08
-6.19332e-08
-3.25846e-08
-5.14174e-08
-3.00563e-08
-4.17962e-08
-2.73253e-08
-3.31261e-08
-2.4408e-08
-2.54549e-08
-2.13286e-08
-1.8819e-08
-1.81213e-08
-1.32396e-08
-1.48337e-08
-8.7185e-09
-1.15311e-08
-5.23288e-09
-8.30204e-09
-2.72951e-09
-5.26603e-09
-1.11791e-09
-2.5833e-09
-2.63055e-10
-4.65184e-10
2.32891e-11
8.12266e-10
8.63175e-10
-1.10574e-10
-6.96647e-10
-6.93949e-10
-2.57421e-10
-1.946e-09
1.47372e-09
-4.01456e-09
4.10704e-09
-7.00745e-09
7.35644e-09
-1.09975e-08
1.09976e-08
-1.6027e-08
1.48562e-08
-2.21129e-08
1.87988e-08
-2.92504e-08
2.27243e-08
-3.74174e-08
2.65567e-08
-4.65779e-08
3.02399e-08
-5.66851e-08
3.37328e-08
-6.76841e-08
3.70064e-08
-7.95139e-08
4.00413e-08
-9.21093e-08
4.28252e-08
-1.05403e-07
4.53514e-08
-1.19325e-07
4.7618e-08
-1.33808e-07
4.96264e-08
-1.48781e-07
5.1381e-08
-1.64179e-07
5.28881e-08
-1.79934e-07
5.41559e-08
-1.95983e-07
5.51938e-08
-2.12266e-07
5.60121e-08
-2.28723e-07
5.6622e-08
-2.453e-07
5.70348e-08
-2.61945e-07
5.72626e-08
-2.78608e-07
5.73172e-08
-2.95244e-07
5.72108e-08
-3.1181e-07
5.69552e-08
-3.28267e-07
5.65623e-08
-3.44578e-07
5.60435e-08
-3.60711e-07
5.54102e-08
-3.76636e-07
5.46732e-08
-3.92325e-07
5.38429e-08
-4.07754e-07
5.29295e-08
-4.22902e-07
5.19425e-08
-4.37749e-07
5.08911e-08
-4.5228e-07
4.97839e-08
-4.6648e-07
4.86292e-08
-4.80337e-07
4.74346e-08
-4.93841e-07
4.62072e-08
-5.06985e-07
4.49537e-08
-5.19762e-07
4.36804e-08
-5.32167e-07
4.23929e-08
-5.44197e-07
4.10966e-08
-5.55852e-07
3.97961e-08
-5.67129e-07
3.84959e-08
-5.78031e-07
3.71999e-08
-5.8856e-07
3.59115e-08
-5.98717e-07
3.4634e-08
-6.08506e-07
3.33701e-08
-6.17932e-07
3.2122e-08
-6.26999e-07
3.0892e-08
-6.35713e-07
2.96816e-08
-6.4408e-07
2.84924e-08
-6.52105e-07
2.73253e-08
-6.59796e-07
2.61813e-08
-6.67158e-07
2.50609e-08
-6.74198e-07
2.39644e-08
-6.80924e-07
2.2892e-08
-6.87341e-07
2.18435e-08
-6.93457e-07
2.08186e-08
-6.99277e-07
1.98168e-08
-7.04809e-07
1.88375e-08
-7.10058e-07
1.78797e-08
-7.15029e-07
1.69426e-08
-7.1973e-07
1.60249e-08
-7.24164e-07
1.51254e-08
-7.28336e-07
1.42426e-08
-7.32252e-07
1.33752e-08
-7.35913e-07
1.25215e-08
-7.39325e-07
1.16799e-08
-7.4249e-07
1.08484e-08
-7.45409e-07
1.00253e-08
-7.48086e-07
9.20869e-09
-7.50521e-07
8.3965e-09
-7.52715e-07
7.58672e-09
-7.54668e-07
6.77724e-09
-7.56379e-07
5.96594e-09
-7.57847e-07
5.15063e-09
-7.59071e-07
4.32912e-09
-7.60048e-07
3.49918e-09
-7.60775e-07
2.65859e-09
-7.61248e-07
1.80512e-09
-7.61463e-07
9.36523e-10
-7.61415e-07
5.05925e-11
-7.61099e-07
-8.54868e-10
-7.60507e-07
-1.78202e-09
-7.59635e-07
-2.73299e-09
-7.58473e-07
-3.70983e-09
-7.57015e-07
-4.71456e-09
-7.55251e-07
-5.74908e-09
-7.53173e-07
-6.81523e-09
-7.50772e-07
-7.91474e-09
-7.48037e-07
-9.0492e-09
-7.44958e-07
-1.02201e-08
-7.41525e-07
-1.14287e-08
-7.37727e-07
-1.26762e-08
-7.33552e-07
-1.39635e-08
-7.2899e-07
-1.52914e-08
-7.24027e-07
-1.66604e-08
-7.18654e-07
-1.80706e-08
-7.12859e-07
-1.95222e-08
-7.0663e-07
-2.10148e-08
-6.99955e-07
-2.25477e-08
-6.92825e-07
-2.41199e-08
-6.85228e-07
-2.57302e-08
-6.77156e-07
-2.73768e-08
-6.68597e-07
-2.90574e-08
-6.59544e-07
-3.07696e-08
-6.4999e-07
-3.25102e-08
-6.39927e-07
-3.42757e-08
-6.2935e-07
-3.6062e-08
-6.18255e-07
-3.78645e-08
-6.0664e-07
-3.96781e-08
-5.94504e-07
-4.14971e-08
-5.81847e-07
-4.33152e-08
-5.68672e-07
-4.51255e-08
-5.54984e-07
-4.69206e-08
-5.40791e-07
-4.86923e-08
-5.26102e-07
-5.04321e-08
-5.10929e-07
-5.21306e-08
-4.95288e-07
-5.37779e-08
-4.79197e-07
-5.53637e-08
-4.62676e-07
-5.68769e-08
-4.45752e-07
-5.8306e-08
-4.2845e-07
-5.9639e-08
-4.10803e-07
-6.08633e-08
-3.92845e-07
-6.19662e-08
-3.74616e-07
-6.29343e-08
-3.56156e-07
-6.37541e-08
-3.37514e-07
-6.44119e-08
-3.18737e-07
-6.48937e-08
-2.99881e-07
-6.51857e-08
-2.81003e-07
-6.52738e-08
-2.62163e-07
-6.51445e-08
-2.43427e-07
-6.47842e-08
-2.24863e-07
-6.41802e-08
-2.06542e-07
-6.33201e-08
-1.88539e-07
-6.21923e-08
-1.70929e-07
-6.07866e-08
-1.53791e-07
-5.90939e-08
-1.37207e-07
-5.71068e-08
-1.21256e-07
-5.482e-08
-1.06021e-07
-5.22307e-08
-9.15806e-08
-4.93395e-08
-7.80145e-08
-4.61508e-08
-6.5397e-08
-4.26739e-08
-5.37977e-08
-3.89246e-08
-4.32793e-08
-3.49264e-08
-3.38948e-08
-3.07131e-08
-2.56846e-08
-2.63314e-08
-1.86737e-08
-2.18447e-08
-1.28671e-08
-1.73377e-08
-8.24638e-09
-1.29228e-08
-4.76419e-09
-8.74822e-09
-2.33993e-09
-5.00756e-09
-8.54618e-10
-1.9505e-09
-1.45829e-10
1.03475e-10
7.17344e-10
-2.68842e-10
-4.27805e-10
-1.25598e-09
7.29723e-10
-3.11216e-09
3.32989e-09
-5.95567e-09
6.95056e-09
-9.87398e-09
1.12747e-08
-1.49257e-08
1.60493e-08
-2.11434e-08
2.10738e-08
-2.85364e-08
2.61918e-08
-3.70945e-08
3.12824e-08
-4.67906e-08
3.62529e-08
-5.75842e-08
4.10334e-08
-6.94234e-08
4.5572e-08
-8.22483e-08
4.98313e-08
-9.59922e-08
5.37853e-08
-1.10584e-07
5.74172e-08
-1.2595e-07
6.07175e-08
-1.42015e-07
6.36825e-08
-1.58702e-07
6.63132e-08
-1.75935e-07
6.86141e-08
-1.93639e-07
7.05929e-08
-2.11743e-07
7.22593e-08
-2.30174e-07
7.36252e-08
-2.48865e-07
7.47034e-08
-2.67751e-07
7.55079e-08
-2.8677e-07
7.60535e-08
-3.05863e-07
7.63555e-08
-3.24975e-07
7.64291e-08
-3.44054e-07
7.62901e-08
-3.63053e-07
7.59539e-08
-3.81927e-07
7.54359e-08
-4.00634e-07
7.47511e-08
-4.19138e-07
7.39142e-08
-4.37404e-07
7.29395e-08
-4.55402e-07
7.18408e-08
-4.73104e-07
7.06313e-08
-4.90485e-07
6.93236e-08
-5.07524e-07
6.79299e-08
-5.24202e-07
6.64615e-08
-5.40502e-07
6.49292e-08
-5.5641e-07
6.33433e-08
-5.71916e-07
6.17131e-08
-5.8701e-07
6.00476e-08
-6.01685e-07
5.83551e-08
-6.15935e-07
5.6643e-08
-6.29757e-07
5.49183e-08
-6.43148e-07
5.31876e-08
-6.56109e-07
5.14565e-08
-6.68639e-07
4.97303e-08
-6.80741e-07
4.80137e-08
-6.92418e-07
4.63108e-08
-7.03673e-07
4.46254e-08
-7.14512e-07
4.29606e-08
-7.24939e-07
4.13191e-08
-7.34961e-07
3.97033e-08
-7.44583e-07
3.81151e-08
-7.53814e-07
3.65559e-08
-7.62659e-07
3.50269e-08
-7.71127e-07
3.35289e-08
-7.79225e-07
3.20623e-08
-7.86961e-07
3.06273e-08
-7.94341e-07
2.92238e-08
-8.01374e-07
2.78513e-08
-8.08066e-07
2.65093e-08
-8.14425e-07
2.51968e-08
-8.20459e-07
2.39128e-08
-8.26172e-07
2.26559e-08
-8.31572e-07
2.14246e-08
-8.36664e-07
2.02174e-08
-8.41453e-07
1.90323e-08
-8.45945e-07
1.78673e-08
-8.50144e-07
1.67205e-08
-8.54054e-07
1.55894e-08
-8.57677e-07
1.44719e-08
-8.61017e-07
1.33653e-08
-8.64076e-07
1.22673e-08
-8.66854e-07
1.11751e-08
-8.69354e-07
1.0086e-08
-8.71574e-07
8.9973e-09
-8.73514e-07
7.90614e-09
-8.75173e-07
6.80965e-09
-8.76549e-07
5.70492e-09
-8.77639e-07
4.58904e-09
-8.78439e-07
3.45904e-09
-8.78946e-07
2.31198e-09
-8.79154e-07
1.14492e-09
-8.79059e-07
-4.50701e-11
-8.78653e-07
-1.26088e-09
-8.77929e-07
-2.50535e-09
-8.76881e-07
-3.78129e-09
-8.75499e-07
-5.0914e-09
-8.73776e-07
-6.43831e-09
-8.717e-07
-7.82455e-09
-8.69263e-07
-9.25251e-09
-8.66453e-07
-1.07245e-08
-8.6326e-07
-1.22425e-08
-8.59672e-07
-1.38085e-08
-8.55676e-07
-1.54242e-08
-8.51261e-07
-1.70911e-08
-8.46414e-07
-1.88104e-08
-8.41123e-07
-2.0583e-08
-8.35374e-07
-2.24095e-08
-8.29154e-07
-2.42904e-08
-8.22451e-07
-2.62254e-08
-8.15251e-07
-2.82142e-08
-8.07543e-07
-3.02559e-08
-7.99314e-07
-3.2349e-08
-7.90552e-07
-3.44919e-08
-7.81247e-07
-3.66821e-08
-7.71388e-07
-3.89167e-08
-7.60965e-07
-4.11923e-08
-7.49971e-07
-4.35047e-08
-7.38397e-07
-4.58493e-08
-7.26238e-07
-4.82206e-08
-7.1349e-07
-5.06125e-08
-7.0015e-07
-5.30182e-08
-6.86217e-07
-5.54301e-08
-6.71693e-07
-5.78399e-08
-6.5658e-07
-6.02385e-08
-6.40884e-07
-6.2616e-08
-6.24615e-07
-6.49618e-08
-6.07782e-07
-6.72644e-08
-5.90402e-07
-6.95115e-08
-5.72489e-07
-7.16901e-08
-5.54067e-07
-7.37865e-08
-5.35157e-07
-7.57862e-08
-5.15789e-07
-7.7674e-08
-4.95994e-07
-7.94342e-08
-4.75807e-07
-8.10502e-08
-4.55268e-07
-8.25053e-08
-4.3442e-07
-8.37821e-08
-4.13312e-07
-8.48627e-08
-3.91994e-07
-8.57293e-08
-3.70524e-07
-8.63638e-08
-3.48962e-07
-8.67479e-08
-3.27372e-07
-8.68637e-08
-3.05823e-07
-8.66934e-08
-2.84388e-07
-8.62197e-08
-2.63142e-07
-8.54261e-08
-2.42165e-07
-8.42969e-08
-2.2154e-07
-8.28174e-08
-2.01352e-07
-8.09748e-08
-1.81688e-07
-7.87579e-08
-1.62637e-07
-7.61578e-08
-1.44288e-07
-7.31685e-08
-1.26732e-07
-6.97873e-08
-1.10055e-07
-6.60161e-08
-9.4344e-08
-6.18617e-08
-7.96805e-08
-5.73374e-08
-6.61406e-08
-5.24646e-08
-5.37924e-08
-4.72745e-08
-4.26946e-08
-4.1811e-08
-3.28927e-08
-3.61333e-08
-2.4417e-08
-3.03204e-08
-1.72789e-08
-2.44758e-08
-1.14677e-08
-1.8734e-08
-6.94715e-09
-1.32687e-08
-3.65253e-09
-8.30218e-09
-1.48784e-09
-4.11519e-09
-3.24338e-10
-1.06003e-09
3.93004e-10
-4.29747e-10
1.94157e-12
-1.8353e-09
2.13528e-09
-4.32127e-09
5.81586e-09
-7.97277e-09
1.06021e-08
-1.28528e-08
1.61548e-08
-1.9002e-08
2.21985e-08
-2.64395e-08
2.85113e-08
-3.51645e-08
3.49168e-08
-4.51586e-08
4.12765e-08
-5.63883e-08
4.74826e-08
-6.88071e-08
5.34522e-08
-8.23579e-08
5.91228e-08
-9.69753e-08
6.44486e-08
-1.12587e-07
6.93973e-08
-1.29117e-07
7.39472e-08
-1.46485e-07
7.80858e-08
-1.6461e-07
8.18074e-08
-1.83409e-07
8.51123e-08
-2.02801e-07
8.80055e-08
-2.22703e-07
9.04955e-08
-2.43038e-07
9.25939e-08
-2.63728e-07
9.43147e-08
-2.84698e-07
9.56736e-08
-3.05878e-07
9.66877e-08
-3.27199e-07
9.73751e-08
-3.48598e-07
9.77544e-08
-3.70014e-07
9.78451e-08
-3.9139e-07
9.76662e-08
-4.12674e-07
9.72374e-08
-4.33815e-07
9.65776e-08
-4.5477e-07
9.57059e-08
-4.75496e-07
9.46406e-08
-4.95957e-07
9.33998e-08
-5.16117e-07
9.20008e-08
-5.35946e-07
9.04604e-08
-5.55417e-07
8.87944e-08
-5.74505e-07
8.70183e-08
-5.9319e-07
8.51465e-08
-6.11454e-07
8.31927e-08
-6.2928e-07
8.11698e-08
-6.46657e-07
7.90898e-08
-6.63573e-07
7.69641e-08
-6.80021e-07
7.48031e-08
-6.95995e-07
7.26166e-08
-7.1149e-07
7.04133e-08
-7.26504e-07
6.82015e-08
-7.41036e-07