/*--------------------------------*- C++ -*----------------------------------*\
  =========                 |
  \\      /  F ield         | OpenFOAM: The Open Source CFD Toolbox
   \\    /   O peration     | Website:  https://openfoam.org
    \\  /    A nd           | Version:  7
     \\/     M anipulation  |
\*---------------------------------------------------------------------------*/
FoamFile
{
    version     2.0;
    format      ascii;
    class       volVectorField;
    location    "0.45";
    object      U;
}
// * * * * * * * * * * * * * * * * * * * * * * * * * * * * * * * * * * * * * //

dimensions      [0 1 -1 0 0 0 0];

internalField   nonuniform List<vector> 
12800
(
(8.33476e-06 -8.31477e-06 0)
(3.71059e-05 -1.85323e-05 0)
(7.85555e-05 -1.97127e-05 0)
(0.000113274 -1.53562e-05 0)
(0.000130023 -8.31367e-06 0)
(0.000123914 -1.4028e-07 0)
(9.28008e-05 8.34305e-06 0)
(3.60696e-05 1.66962e-05 0)
(-4.59232e-05 2.46862e-05 0)
(-0.00015223 3.21936e-05 0)
(-0.000281551 3.91589e-05 0)
(-0.00043238 4.5557e-05 0)
(-0.000603095 5.13823e-05 0)
(-0.000792018 5.66416e-05 0)
(-0.000997458 6.13489e-05 0)
(-0.00121774 6.55229e-05 0)
(-0.00145121 6.91853e-05 0)
(-0.0016963 7.23596e-05 0)
(-0.00195145 7.50706e-05 0)
(-0.0022152 7.73436e-05 0)
(-0.00248615 7.92042e-05 0)
(-0.00276297 8.06778e-05 0)
(-0.00304442 8.17899e-05 0)
(-0.00332933 8.25653e-05 0)
(-0.00361658 8.30283e-05 0)
(-0.00390516 8.32028e-05 0)
(-0.00419413 8.31118e-05 0)
(-0.0044826 8.27775e-05 0)
(-0.00476978 8.22214e-05 0)
(-0.00505492 8.14642e-05 0)
(-0.00533737 8.05253e-05 0)
(-0.00561651 7.94238e-05 0)
(-0.0058918 7.81774e-05 0)
(-0.00616277 7.6803e-05 0)
(-0.00642897 7.53166e-05 0)
(-0.00669003 7.37332e-05 0)
(-0.00694563 7.2067e-05 0)
(-0.00719548 7.03312e-05 0)
(-0.00743935 6.8538e-05 0)
(-0.00767705 6.66989e-05 0)
(-0.00790841 6.48244e-05 0)
(-0.00813332 6.29243e-05 0)
(-0.00835169 6.10074e-05 0)
(-0.00856346 5.90819e-05 0)
(-0.00876859 5.71552e-05 0)
(-0.00896707 5.5234e-05 0)
(-0.00915894 5.33241e-05 0)
(-0.00934421 5.14311e-05 0)
(-0.00952294 4.95594e-05 0)
(-0.00969521 4.77134e-05 0)
(-0.0098611 4.58965e-05 0)
(-0.0100207 4.41116e-05 0)
(-0.0101741 4.23614e-05 0)
(-0.0103214 4.06478e-05 0)
(-0.0104628 3.89725e-05 0)
(-0.0105984 3.73367e-05 0)
(-0.0107283 3.57411e-05 0)
(-0.0108526 3.41861e-05 0)
(-0.0109715 3.26718e-05 0)
(-0.0110851 3.1198e-05 0)
(-0.0111935 2.97642e-05 0)
(-0.011297 2.83695e-05 0)
(-0.0113955 2.70129e-05 0)
(-0.0114892 2.56931e-05 0)
(-0.0115783 2.44086e-05 0)
(-0.0116629 2.31575e-05 0)
(-0.011743 2.1938e-05 0)
(-0.0118188 2.07481e-05 0)
(-0.0118904 1.95855e-05 0)
(-0.0119578 1.84477e-05 0)
(-0.0120212 1.73321e-05 0)
(-0.0120806 1.62362e-05 0)
(-0.012136 1.5157e-05 0)
(-0.0121876 1.40918e-05 0)
(-0.0122353 1.30375e-05 0)
(-0.0122792 1.19911e-05 0)
(-0.0123193 1.09492e-05 0)
(-0.0123557 9.90869e-06 0)
(-0.0123882 8.86622e-06 0)
(-0.012417 7.81845e-06 0)
(-0.0124419 6.76197e-06 0)
(-0.012463 5.69331e-06 0)
(-0.0124802 4.60899e-06 0)
(-0.0124934 3.50546e-06 0)
(-0.0125026 2.37921e-06 0)
(-0.0125077 1.22674e-06 0)
(-0.0125085 4.45657e-08 0)
(-0.012505 -1.17079e-06 0)
(-0.0124971 -2.42275e-06 0)
(-0.0124845 -3.71472e-06 0)
(-0.0124673 -5.04998e-06 0)
(-0.0124452 -6.43175e-06 0)
(-0.0124181 -7.86313e-06 0)
(-0.0123857 -9.34709e-06 0)
(-0.012348 -1.08865e-05 0)
(-0.0123046 -1.24839e-05 0)
(-0.0122555 -1.41418e-05 0)
(-0.0122004 -1.58624e-05 0)
(-0.0121391 -1.76477e-05 0)
(-0.0120713 -1.94993e-05 0)
(-0.011997 -2.14185e-05 0)
(-0.0119157 -2.34065e-05 0)
(-0.0118273 -2.54637e-05 0)
(-0.0117316 -2.75903e-05 0)
(-0.0116283 -2.97861e-05 0)
(-0.0115173 -3.20502e-05 0)
(-0.0113982 -3.43813e-05 0)
(-0.0112709 -3.67774e-05 0)
(-0.0111351 -3.92359e-05 0)
(-0.0109907 -4.17537e-05 0)
(-0.0108376 -4.43267e-05 0)
(-0.0106754 -4.69501e-05 0)
(-0.0105041 -4.96185e-05 0)
(-0.0103235 -5.23255e-05 0)
(-0.0101336 -5.50637e-05 0)
(-0.00993424 -5.78251e-05 0)
(-0.0097254 -6.06005e-05 0)
(-0.00950707 -6.33797e-05 0)
(-0.00927927 -6.61517e-05 0)
(-0.00904207 -6.89044e-05 0)
(-0.00879558 -7.16245e-05 0)
(-0.00853994 -7.4298e-05 0)
(-0.00827537 -7.69094e-05 0)
(-0.00800213 -7.94424e-05 0)
(-0.00772054 -8.18799e-05 0)
(-0.00743096 -8.42034e-05 0)
(-0.00713385 -8.63935e-05 0)
(-0.00682971 -8.84299e-05 0)
(-0.00651912 -9.02916e-05 0)
(-0.00620272 -9.19565e-05 0)
(-0.00588125 -9.34017e-05 0)
(-0.0055555 -9.46037e-05 0)
(-0.00522636 -9.55383e-05 0)
(-0.00489479 -9.61808e-05 0)
(-0.00456182 -9.65059e-05 0)
(-0.00422858 -9.64881e-05 0)
(-0.00389628 -9.61016e-05 0)
(-0.00356621 -9.53202e-05 0)
(-0.00323974 -9.4118e-05 0)
(-0.00291832 -9.2469e-05 0)
(-0.00260348 -9.03472e-05 0)
(-0.00229683 -8.77274e-05 0)
(-0.00200004 -8.45845e-05 0)
(-0.00171486 -8.08946e-05 0)
(-0.00144309 -7.66346e-05 0)
(-0.00118658 -7.17829e-05 0)
(-0.000947227 -6.63203e-05 0)
(-0.000726954 -6.02304e-05 0)
(-0.00052768 -5.35018e-05 0)
(-0.000351298 -4.61306e-05 0)
(-0.000199633 -3.81249e-05 0)
(-7.43735e-05 -2.95129e-05 0)
(2.30205e-05 -2.03587e-05 0)
(9.14758e-05 -1.07909e-05 0)
(0.000130563 -1.05976e-06 0)
(0.000140915 8.35545e-06 0)
(0.000124849 1.6551e-05 0)
(8.77281e-05 2.17941e-05 0)
(4.20483e-05 2.08635e-05 0)
(9.63454e-06 9.63287e-06 0)
(1.85616e-05 -3.70783e-05 0)
(7.03795e-05 -7.02974e-05 0)
(0.000132093 -6.7765e-05 0)
(0.00017021 -4.20987e-05 0)
(0.000163444 -3.16137e-06 0)
(0.000100361 4.2712e-05 0)
(-2.53067e-05 9.15521e-05 0)
(-0.000216297 0.000140877 0)
(-0.000472821 0.00018914 0)
(-0.000793376 0.000235381 0)
(-0.00117532 0.000279007 0)
(-0.00161525 0.000319663 0)
(-0.00210931 0.000357154 0)
(-0.00265333 0.000391388 0)
(-0.00324302 0.00042235 0)
(-0.00387401 0.000450074 0)
(-0.00454197 0.000474632 0)
(-0.00524263 0.000496121 0)
(-0.00597185 0.000514656 0)
(-0.00672563 0.000530368 0)
(-0.00750011 0.000543393 0)
(-0.00829164 0.000553875 0)
(-0.00909673 0.000561962 0)
(-0.00991211 0.0005678 0)
(-0.0107347 0.00057154 0)
(-0.0115616 0.000573326 0)
(-0.0123901 0.000573305 0)
(-0.0132177 0.000571617 0)
(-0.0140422 0.000568401 0)
(-0.0148614 0.000563789 0)
(-0.0156734 0.00055791 0)
(-0.0164765 0.000550889 0)
(-0.017269 0.000542843 0)
(-0.0180496 0.000533886 0)
(-0.0188171 0.000524124 0)
(-0.0195702 0.000513659 0)
(-0.020308 0.000502587 0)
(-0.0210298 0.000490997 0)
(-0.0217347 0.000478974 0)
(-0.0224222 0.000466596 0)
(-0.0230919 0.000453936 0)
(-0.0237432 0.000441062 0)
(-0.024376 0.000428036 0)
(-0.02499 0.000414914 0)
(-0.0255851 0.000401749 0)
(-0.0261613 0.000388588 0)
(-0.0267185 0.000375473 0)
(-0.0272569 0.000362442 0)
(-0.0277765 0.00034953 0)
(-0.0282776 0.000336765 0)
(-0.0287603 0.000324174 0)
(-0.0292249 0.000311779 0)
(-0.0296717 0.000299599 0)
(-0.030101 0.000287648 0)
(-0.0305131 0.00027594 0)
(-0.0309084 0.000264484 0)
(-0.0312871 0.000253287 0)
(-0.0316498 0.000242353 0)
(-0.0319966 0.000231682 0)
(-0.0323281 0.000221276 0)
(-0.0326446 0.000211132 0)
(-0.0329464 0.000201244 0)
(-0.0332339 0.000191606 0)
(-0.0335074 0.000182211 0)
(-0.0337674 0.000173048 0)
(-0.034014 0.000164107 0)
(-0.0342477 0.000155375 0)
(-0.0344686 0.000146838 0)
(-0.0346771 0.000138482 0)
(-0.0348734 0.00013029 0)
(-0.0350578 0.000122245 0)
(-0.0352304 0.000114329 0)
(-0.0353913 0.000106524 0)
(-0.0355408 9.88101e-05 0)
(-0.0356789 9.11671e-05 0)
(-0.0358058 8.3574e-05 0)
(-0.0359214 7.60096e-05 0)
(-0.0360259 6.84517e-05 0)
(-0.0361191 6.0878e-05 0)
(-0.0362011 5.32659e-05 0)
(-0.0362718 4.55922e-05 0)
(-0.0363311 3.78338e-05 0)
(-0.0363788 2.99671e-05 0)
(-0.0364148 2.19686e-05 0)
(-0.0364388 1.38147e-05 0)
(-0.0364507 5.48188e-06 0)
(-0.0364501 -3.0532e-06 0)
(-0.0364367 -1.18136e-05 0)
(-0.0364103 -2.08222e-05 0)
(-0.0363703 -3.01011e-05 0)
(-0.0363166 -3.96722e-05 0)
(-0.0362485 -4.95566e-05 0)
(-0.0361656 -5.97744e-05 0)
(-0.0360675 -7.03448e-05 0)
(-0.0359536 -8.12861e-05 0)
(-0.0358235 -9.2615e-05 0)
(-0.0356764 -0.000104347 0)
(-0.0355119 -0.000116495 0)
(-0.0353294 -0.000129073 0)
(-0.0351282 -0.000142088 0)
(-0.0349077 -0.00015555 0)
(-0.0346674 -0.000169462 0)
(-0.0344064 -0.000183827 0)
(-0.0341243 -0.000198646 0)
(-0.0338204 -0.000213912 0)
(-0.033494 -0.00022962 0)
(-0.0331446 -0.000245758 0)
(-0.0327715 -0.00026231 0)
(-0.0323743 -0.000279258 0)
(-0.0319523 -0.000296576 0)
(-0.0315051 -0.000314236 0)
(-0.0310323 -0.000332203 0)
(-0.0305335 -0.000350439 0)
(-0.0300083 -0.000368897 0)
(-0.0294564 -0.000387527 0)
(-0.0288778 -0.000406271 0)
(-0.0282723 -0.000425067 0)
(-0.0276399 -0.000443843 0)
(-0.0269808 -0.000462525 0)
(-0.0262951 -0.000481028 0)
(-0.0255833 -0.000499262 0)
(-0.0248457 -0.000517132 0)
(-0.0240831 -0.000534533 0)
(-0.0232962 -0.000551357 0)
(-0.022486 -0.000567485 0)
(-0.0216535 -0.000582796 0)
(-0.0208001 -0.00059716 0)
(-0.0199272 -0.000610442 0)
(-0.0190365 -0.000622504 0)
(-0.0181299 -0.000633198 0)
(-0.0172095 -0.000642376 0)
(-0.0162775 -0.000649884 0)
(-0.0153365 -0.000655566 0)
(-0.0143892 -0.000659262 0)
(-0.0134385 -0.000660811 0)
(-0.0124876 -0.000660051 0)
(-0.01154 -0.000656821 0)
(-0.0105992 -0.000650959 0)
(-0.00966908 -0.000642308 0)
(-0.00875366 -0.000630713 0)
(-0.0078572 -0.000616025 0)
(-0.00698412 -0.000598103 0)
(-0.00613901 -0.000576814 0)
(-0.00532664 -0.000552038 0)
(-0.00455187 -0.000523674 0)
(-0.00381966 -0.000491641 0)
(-0.00313504 -0.000455886 0)
(-0.00250299 -0.000416397 0)
(-0.00192843 -0.000373218 0)
(-0.00141607 -0.000326469 0)
(-0.000970279 -0.000276382 0)
(-0.000594872 -0.000223357 0)
(-0.000292834 -0.00016805 0)
(-6.5882e-05 -0.000111514 0)
(8.61597e-05 -5.54466e-05 0)
(0.000166261 -2.57952e-06 0)
(0.000181311 4.26834e-05 0)
(0.000143978 7.32513e-05 0)
(7.79832e-05 7.79496e-05 0)
(2.0864e-05 4.20341e-05 0)
(1.98111e-05 -7.86325e-05 0)
(6.81295e-05 -0.000132107 0)
(0.000111243 -0.000110692 0)
(0.000110449 -3.94789e-05 0)
(4.04849e-05 6.29492e-05 0)
(-0.000113511 0.000183372 0)
(-0.000360437 0.000312642 0)
(-0.000704692 0.00044455 0)
(-0.00114722 0.000574916 0)
(-0.00168647 0.000700946 0)
(-0.00231909 0.00082079 0)
(-0.0030405 0.000933253 0)
(-0.00384527 0.0010376 0)
(-0.00472742 0.0011334 0)
(-0.00568064 0.00122048 0)
(-0.00669843 0.00129882 0)
(-0.00777427 0.00136853 0)
(-0.0089017 0.0014298 0)
(-0.0100744 0.00148288 0)
(-0.0112861 0.0015281 0)
(-0.0125309 0.0015658 0)
(-0.013803 0.00159634 0)
(-0.0150971 0.00162012 0)
(-0.016408 0.00163752 0)
(-0.0177308 0.00164894 0)
(-0.019061 0.0016548 0)
(-0.0203942 0.00165547 0)
(-0.0217265 0.00165136 0)
(-0.0230542 0.00164285 0)
(-0.024374 0.00163031 0)
(-0.0256828 0.00161409 0)
(-0.0269777 0.00159456 0)
(-0.0282562 0.00157204 0)
(-0.029516 0.00154686 0)
(-0.0307551 0.00151931 0)
(-0.0319716 0.00148969 0)
(-0.033164 0.00145828 0)
(-0.0343308 0.00142532 0)
(-0.035471 0.00139107 0)
(-0.0365835 0.00135574 0)
(-0.0376675 0.00131954 0)
(-0.0387223 0.00128268 0)
(-0.0397475 0.00124534 0)
(-0.0407427 0.00120767 0)
(-0.0417076 0.00116983 0)
(-0.0426421 0.00113195 0)
(-0.0435463 0.00109417 0)
(-0.0444202 0.00105659 0)
(-0.0452639 0.00101931 0)
(-0.0460778 0.000982414 0)
(-0.0468621 0.000945987 0)
(-0.0476173 0.000910091 0)
(-0.0483436 0.000874783 0)
(-0.0490417 0.000840108 0)
(-0.0497119 0.000806104 0)
(-0.0503549 0.0007728 0)
(-0.0509712 0.000740217 0)
(-0.0515613 0.000708368 0)
(-0.0521258 0.000677261 0)
(-0.0526654 0.000646895 0)
(-0.0531805 0.000617264 0)
(-0.0536717 0.000588356 0)
(-0.0541397 0.000560154 0)
(-0.0545849 0.000532636 0)
(-0.0550079 0.000505776 0)
(-0.0554092 0.000479541 0)
(-0.0557892 0.000453897 0)
(-0.0561485 0.000428806 0)
(-0.0564874 0.000404224 0)
(-0.0568063 0.000380107 0)
(-0.0571056 0.000356406 0)
(-0.0573855 0.00033307 0)
(-0.0576464 0.000310047 0)
(-0.0578885 0.00028728 0)
(-0.0581118 0.000264711 0)
(-0.0583167 0.000242282 0)
(-0.0585031 0.00021993 0)
(-0.0586711 0.000197594 0)
(-0.0588207 0.00017521 0)
(-0.0589517 0.000152712 0)
(-0.0590642 0.000130035 0)
(-0.0591579 0.000107113 0)
(-0.0592326 8.38786e-05 0)
(-0.0592879 6.02646e-05 0)
(-0.0593237 3.62043e-05 0)
(-0.0593395 1.16306e-05 0)
(-0.0593348 -1.35227e-05 0)
(-0.0593092 -3.93211e-05 0)
(-0.0592622 -6.58289e-05 0)
(-0.0591931 -9.31094e-05 0)
(-0.0591013 -0.000121224 0)
(-0.0589861 -0.000150231 0)
(-0.0588468 -0.000180188 0)
(-0.0586827 -0.000211149 0)
(-0.0584928 -0.000243164 0)
(-0.0582764 -0.00027628 0)
(-0.0580326 -0.000310539 0)
(-0.0577604 -0.000345978 0)
(-0.057459 -0.00038263 0)
(-0.0571273 -0.000420521 0)
(-0.0567643 -0.00045967 0)
(-0.0563691 -0.000500088 0)
(-0.0559407 -0.000541781 0)
(-0.0554781 -0.000584744 0)
(-0.0549803 -0.000628963 0)
(-0.0544463 -0.000674414 0)
(-0.0538752 -0.000721062 0)
(-0.0532661 -0.000768861 0)
(-0.0526181 -0.000817751 0)
(-0.0519305 -0.000867661 0)
(-0.0512023 -0.000918505 0)
(-0.0504331 -0.000970182 0)
(-0.0496222 -0.00102258 0)
(-0.0487692 -0.00107556 0)
(-0.0478736 -0.00112897 0)
(-0.0469353 -0.00118266 0)
(-0.0459541 -0.00123643 0)
(-0.0449301 -0.00129009 0)
(-0.0438635 -0.00134342 0)
(-0.0427548 -0.00139617 0)
(-0.0416045 -0.00144809 0)
(-0.0404135 -0.00149891 0)
(-0.0391827 -0.00154832 0)
(-0.0379136 -0.00159601 0)
(-0.0366076 -0.00164165 0)
(-0.0352666 -0.0016849 0)
(-0.0338927 -0.00172539 0)
(-0.0324881 -0.00176272 0)
(-0.0310558 -0.00179652 0)
(-0.0295985 -0.00182637 0)
(-0.0281198 -0.00185185 0)
(-0.0266233 -0.00187252 0)
(-0.0251128 -0.00188796 0)
(-0.0235929 -0.00189771 0)
(-0.0220683 -0.00190134 0)
(-0.0205438 -0.00189839 0)
(-0.0190249 -0.00188842 0)
(-0.0175173 -0.00187099 0)
(-0.0160271 -0.00184568 0)
(-0.0145605 -0.00181207 0)
(-0.0131242 -0.00176979 0)
(-0.0117251 -0.00171845 0)
(-0.0103703 -0.00165775 0)
(-0.00906706 -0.00158738 0)
(-0.00782293 -0.00150715 0)
(-0.00664544 -0.00141689 0)
(-0.00554214 -0.00131658 0)
(-0.00452048 -0.00120628 0)
(-0.00358768 -0.00108629 0)
(-0.00275052 -0.00095712 0)
(-0.00201516 -0.000819627 0)
(-0.00138678 -0.000675167 0)
(-0.000869138 -0.0005258 0)
(-0.000464028 -0.000374615 0)
(-0.000170454 -0.000226226 0)
(1.64171e-05 -8.75065e-05 0)
(0.000106428 3.1362e-05 0)
(0.000116103 0.000115553 0)
(7.35522e-05 0.000144015 0)
(2.18489e-05 8.77577e-05 0)
(1.55839e-05 -0.000113679 0)
(4.29378e-05 -0.000170696 0)
(4.09212e-05 -0.000110104 0)
(-2.80864e-05 2.97015e-05 0)
(-0.000189787 0.000221179 0)
(-0.000460371 0.000443889 0)
(-0.000849913 0.000682964 0)
(-0.00136365 0.000927807 0)
(-0.00200294 0.00117095 0)
(-0.00276621 0.00140716 0)
(-0.00364966 0.00163284 0)
(-0.00464789 0.00184554 0)
(-0.00575435 0.00204367 0)
(-0.00696167 0.00222625 0)
(-0.00826198 0.00239277 0)
(-0.00964712 0.00254306 0)
(-0.0111088 0.00267719 0)
(-0.0126386 0.00279543 0)
(-0.0142285 0.0028982 0)
(-0.0158704 0.00298602 0)
(-0.0175565 0.00305948 0)
(-0.0192793 0.00311926 0)
(-0.0210316 0.00316604 0)
(-0.0228067 0.00320054 0)
(-0.0245981 0.00322352 0)
(-0.0263996 0.00323571 0)
(-0.0282057 0.00323786 0)
(-0.030011 0.00323072 0)
(-0.0318106 0.003215 0)
(-0.0335999 0.00319141 0)
(-0.0353748 0.00316065 0)
(-0.0371314 0.00312339 0)
(-0.0388664 0.00308026 0)
(-0.0405766 0.00303188 0)
(-0.0422591 0.00297884 0)
(-0.0439117 0.0029217 0)
(-0.0455319 0.00286099 0)
(-0.0471181 0.00279722 0)
(-0.0486685 0.00273084 0)
(-0.0501818 0.0026623 0)
(-0.0516568 0.00259201 0)
(-0.0530926 0.00252036 0)
(-0.0544886 0.00244769 0)
(-0.055844 0.00237433 0)
(-0.0571587 0.00230057 0)
(-0.0584324 0.00222668 0)
(-0.0596651 0.00215292 0)
(-0.0608568 0.00207949 0)
(-0.0620078 0.0020066 0)
(-0.0631183 0.00193442 0)
(-0.0641887 0.0018631 0)
(-0.0652195 0.00179277 0)
(-0.0662112 0.00172354 0)
(-0.0671646 0.00165551 0)
(-0.0680801 0.00158875 0)
(-0.0689585 0.00152332 0)
(-0.0698005 0.00145927 0)
(-0.0706068 0.00139661 0)
(-0.0713783 0.00133538 0)
(-0.0721157 0.00127557 0)
(-0.0728196 0.00121716 0)
(-0.073491 0.00116014 0)
(-0.0741305 0.00110448 0)
(-0.0747389 0.00105014 0)
(-0.0753168 0.000997058 0)
(-0.0758649 0.000945181 0)
(-0.0763839 0.000894442 0)
(-0.0768744 0.000844766 0)
(-0.0773368 0.000796073 0)
(-0.0777718 0.000748273 0)
(-0.0781798 0.000701275 0)
(-0.0785612 0.00065498 0)
(-0.0789163 0.000609284 0)
(-0.0792454 0.000564081 0)
(-0.0795488 0.000519257 0)
(-0.0798267 0.000474699 0)
(-0.0800791 0.000430287 0)
(-0.0803062 0.0003859 0)
(-0.0805078 0.000341415 0)
(-0.0806839 0.000296706 0)
(-0.0808343 0.000251646 0)
(-0.0809588 0.000206106 0)
(-0.0810571 0.000159956 0)
(-0.0811288 0.000113068 0)
(-0.0811735 6.53103e-05 0)
(-0.0811906 1.65553e-05 0)
(-0.0811796 -3.33253e-05 0)
(-0.0811398 -8.44579e-05 0)
(-0.0810706 -0.000136967 0)
(-0.080971 -0.000190973 0)
(-0.0808403 -0.000246594 0)
(-0.0806776 -0.000303944 0)
(-0.0804818 -0.000363131 0)
(-0.0802519 -0.000424257 0)
(-0.0799869 -0.00048742 0)
(-0.0796856 -0.000552707 0)
(-0.0793469 -0.000620199 0)
(-0.0789695 -0.000689965 0)
(-0.0785521 -0.000762065 0)
(-0.0780936 -0.000836548 0)
(-0.0775925 -0.000913447 0)
(-0.0770477 -0.000992784 0)
(-0.0764577 -0.00107456 0)
(-0.0758212 -0.00115877 0)
(-0.0751371 -0.00124538 0)
(-0.0744039 -0.00133434 0)
(-0.0736205 -0.00142557 0)
(-0.0727856 -0.00151899 0)
(-0.0718983 -0.00161448 0)
(-0.0709573 -0.00171189 0)
(-0.0699618 -0.00181105 0)
(-0.0689108 -0.00191177 0)
(-0.0678037 -0.00201381 0)
(-0.0666399 -0.00211691 0)
(-0.0654189 -0.00222079 0)
(-0.0641405 -0.00232513 0)
(-0.0628045 -0.00242955 0)
(-0.0614111 -0.00253367 0)
(-0.0599606 -0.00263706 0)
(-0.0584537 -0.00273925 0)
(-0.0568911 -0.00283975 0)
(-0.0552742 -0.00293801 0)
(-0.0536042 -0.00303347 0)
(-0.051883 -0.00312552 0)
(-0.0501128 -0.00321351 0)
(-0.0482959 -0.00329678 0)
(-0.0464352 -0.00337461 0)
(-0.0445341 -0.00344628 0)
(-0.042596 -0.00351102 0)
(-0.0406251 -0.00356805 0)
(-0.0386259 -0.00361656 0)
(-0.0366032 -0.00365574 0)
(-0.0345625 -0.00368473 0)
(-0.0325096 -0.00370272 0)
(-0.0304507 -0.00370884 0)
(-0.0283924 -0.00370225 0)
(-0.0263421 -0.00368213 0)
(-0.0243071 -0.00364766 0)
(-0.0222955 -0.00359804 0)
(-0.0203156 -0.00353253 0)
(-0.0183761 -0.00345042 0)
(-0.0164861 -0.00335108 0)
(-0.0146548 -0.00323392 0)
(-0.0128917 -0.00309851 0)
(-0.0112065 -0.00294449 0)
(-0.00960895 -0.00277172 0)
(-0.00810854 -0.00258023 0)
(-0.00671475 -0.00237035 0)
(-0.00543657 -0.00214279 0)
(-0.00428237 -0.00189871 0)
(-0.00325959 -0.00163999 0)
(-0.00237435 -0.00136939 0)
(-0.0016309 -0.00109094 0)
(-0.00103108 -0.000810436 0)
(-0.000573376 -0.000536167 0)
(-0.000252024 -0.00027988 0)
(-5.58378e-05 -5.81401e-05 0)
(3.32022e-05 0.000106151 0)
(4.35728e-05 0.000181883 0)
(1.67373e-05 0.000125151 0)
(8.69825e-06 -0.000131062 0)
(4.50144e-06 -0.000164844 0)
(-6.07269e-05 -4.07306e-05 0)
(-0.000218708 0.000191234 0)
(-0.000492945 0.000495199 0)
(-0.000899423 0.000843912 0)
(-0.00144821 0.00121691 0)
(-0.00214455 0.00159913 0)
(-0.00298978 0.00197956 0)
(-0.0039821 0.00235025 0)
(-0.0051173 0.00270553 0)
(-0.00638929 0.00304142 0)
(-0.00779062 0.00335524 0)
(-0.00931287 0.00364526 0)
(-0.0109469 0.00391047 0)
(-0.0126832 0.00415043 0)
(-0.014512 0.00436512 0)
(-0.0164235 0.00455483 0)
(-0.0184079 0.00472011 0)
(-0.0204557 0.00486169 0)
(-0.0225575 0.00498045 0)
(-0.0247042 0.00507737 0)
(-0.0268872 0.00515351 0)
(-0.0290983 0.00520998 0)
(-0.0313295 0.00524792 0)
(-0.0335734 0.0052685 0)
(-0.0358232 0.00527289 0)
(-0.0380722 0.00526225 0)
(-0.0403144 0.00523772 0)
(-0.0425442 0.00520044 0)
(-0.0447565 0.0051515 0)
(-0.0469466 0.00509197 0)
(-0.0491101 0.00502288 0)
(-0.0512433 0.00494522 0)
(-0.0533426 0.00485992 0)
(-0.0554049 0.0047679 0)
(-0.0574275 0.00467001 0)
(-0.059408 0.00456705 0)
(-0.0613445 0.00445978 0)
(-0.063235 0.00434892 0)
(-0.0650783 0.00423514 0)
(-0.0668731 0.00411905 0)
(-0.0686184 0.00400123 0)
(-0.0703136 0.00388219 0)
(-0.0719583 0.00376244 0)
(-0.073552 0.0036424 0)
(-0.0750948 0.00352248 0)
(-0.0765866 0.00340304 0)
(-0.0780278 0.00328439 0)
(-0.0794186 0.00316683 0)
(-0.0807594 0.00305061 0)
(-0.0820509 0.00293593 0)
(-0.0832937 0.00282299 0)
(-0.0844885 0.00271194 0)
(-0.0856361 0.0026029 0)
(-0.0867373 0.00249597 0)
(-0.0877929 0.00239124 0)
(-0.088804 0.00228873 0)
(-0.0897714 0.0021885 0)
(-0.090696 0.00209053 0)
(-0.0915787 0.00199482 0)
(-0.0924206 0.00190133 0)
(-0.0932224 0.00181002 0)
(-0.093985 0.00172081 0)
(-0.0947094 0.00163363 0)
(-0.0953964 0.00154839 0)
(-0.0960466 0.00146497 0)
(-0.0966609 0.00138326 0)
(-0.0972399 0.00130313 0)
(-0.0977843 0.00122443 0)
(-0.0982945 0.00114702 0)
(-0.0987712 0.00107074 0)
(-0.0992147 0.000995418 0)
(-0.0996254 0.000920885 0)
(-0.100004 0.000846959 0)
(-0.100349 0.000773456 0)
(-0.100663 0.000700183 0)
(-0.100945 0.000626946 0)
(-0.101194 0.000553544 0)
(-0.101411 0.000479774 0)
(-0.101596 0.000405433 0)
(-0.101748 0.000330311 0)
(-0.101867 0.0002542 0)
(-0.101952 0.000176893 0)
(-0.102003 9.81787e-05 0)
(-0.102019 1.78508e-05 0)
(-0.102 -6.42967e-05 0)
(-0.101945 -0.000148467 0)
(-0.101852 -0.000234859 0)
(-0.101721 -0.000323668 0)
(-0.101551 -0.000415081 0)
(-0.101341 -0.000509281 0)
(-0.101089 -0.00060644 0)
(-0.100794 -0.000706723 0)
(-0.100456 -0.000810282 0)
(-0.100071 -0.000917258 0)
(-0.0996403 -0.00102778 0)
(-0.0991608 -0.00114195 0)
(-0.0986312 -0.00125986 0)
(-0.0980502 -0.0013816 0)
(-0.0974161 -0.0015072 0)
(-0.0967273 -0.00163671 0)
(-0.0959822 -0.00177012 0)
(-0.0951793 -0.00190741 0)
(-0.0943169 -0.00204853 0)
(-0.0933936 -0.00219338 0)
(-0.0924078 -0.00234186 0)
(-0.0913581 -0.0024938 0)
(-0.0902432 -0.00264901 0)
(-0.0890618 -0.00280725 0)
(-0.0878128 -0.00296824 0)
(-0.0864951 -0.00313166 0)
(-0.0851079 -0.00329713 0)
(-0.0836505 -0.00346423 0)
(-0.0821225 -0.00363248 0)
(-0.0805235 -0.00380136 0)
(-0.0788534 -0.00397029 0)
(-0.0771125 -0.00413862 0)
(-0.0753013 -0.00430566 0)
(-0.0734205 -0.00447066 0)
(-0.0714713 -0.00463281 0)
(-0.0694551 -0.00479125 0)
(-0.0673738 -0.00494504 0)
(-0.0652296 -0.00509322 0)
(-0.0630251 -0.00523475 0)
(-0.0607635 -0.00536856 0)
(-0.0584483 -0.00549349 0)
(-0.0560835 -0.00560839 0)
(-0.0536736 -0.00571203 0)
(-0.0512236 -0.00580316 0)
(-0.0487391 -0.0058805 0)
(-0.0462262 -0.00594272 0)
(-0.0436913 -0.00598852 0)
(-0.0411417 -0.00601654 0)
(-0.0385849 -0.00602547 0)
(-0.0360293 -0.00601396 0)
(-0.0334834 -0.00598071 0)
(-0.0309565 -0.00592447 0)
(-0.0284583 -0.00584399 0)
(-0.0259988 -0.00573814 0)
(-0.0235886 -0.00560585 0)
(-0.0212385 -0.00544616 0)
(-0.0189597 -0.00525826 0)
(-0.0167635 -0.00504152 0)
(-0.0146614 -0.00479554 0)
(-0.012665 -0.00452018 0)
(-0.0107854 -0.00421569 0)
(-0.00903374 -0.00388277 0)
(-0.00742041 -0.00352272 0)
(-0.00595502 -0.00313765 0)
(-0.00464604 -0.00273068 0)
(-0.00350031 -0.00230631 0)
(-0.00252261 -0.00187092 0)
(-0.00171495 -0.00143335 0)
(-0.00107588 -0.00100582 0)
(-0.000599565 -0.000605065 0)
(-0.000274822 -0.000253862 0)
(-8.38737e-05 1.73161e-05 0)
(-8.45109e-07 0.000168147 0)
(8.74067e-06 0.000141893 0)
(6.6927e-07 -0.000125866 0)
(-4.10558e-05 -0.000102923 0)
(-0.000181026 0.000112706 0)
(-0.000441994 0.000461968 0)
(-0.000843364 0.000901898 0)
(-0.00139971 0.00139917 0)
(-0.00212013 0.00192815 0)
(-0.00300916 0.00246947 0)
(-0.00406758 0.00300862 0)
(-0.00529311 0.00353481 0)
(-0.00668097 0.00404017 0)
(-0.00822443 0.00451902 0)
(-0.00991524 0.00496741 0)
(-0.0117441 0.0053827 0)
(-0.0137007 0.00576328 0)
(-0.0157746 0.00610833 0)
(-0.0179546 0.00641764 0)
(-0.0202298 0.00669148 0)
(-0.0225889 0.00693052 0)
(-0.0250213 0.00713567 0)
(-0.027516 0.0073081 0)
(-0.0300628 0.00744914 0)
(-0.0326518 0.00756023 0)
(-0.0352732 0.00764292 0)
(-0.0379182 0.0076988 0)
(-0.0405779 0.00772952 0)
(-0.0432444 0.00773671 0)
(-0.0459101 0.00772205 0)
(-0.0485679 0.00768716 0)
(-0.0512112 0.00763366 0)
(-0.0538341 0.00756312 0)
(-0.0564309 0.00747708 0)
(-0.0589966 0.00737702 0)
(-0.0615267 0.00726437 0)
(-0.0640171 0.00714049 0)
(-0.066464 0.0070067 0)
(-0.0688644 0.00686423 0)
(-0.0712153 0.00671426 0)
(-0.0735143 0.0065579 0)
(-0.0757593 0.00639619 0)
(-0.0779485 0.00623009 0)
(-0.0800806 0.00606052 0)
(-0.0821545 0.00588831 0)
(-0.0841691 0.00571423 0)
(-0.0861241 0.005539 0)
(-0.0880189 0.00536325 0)
(-0.0898535 0.00518759 0)
(-0.0916278 0.00501254 0)
(-0.0933422 0.00483856 0)
(-0.0949968 0.00466609 0)
(-0.0965924 0.00449549 0)
(-0.0981294 0.00432709 0)
(-0.0996087 0.00416115 0)
(-0.101031 0.0039979 0)
(-0.102397 0.00383754 0)
(-0.103708 0.00368021 0)
(-0.104965 0.00352603 0)
(-0.106169 0.00337507 0)
(-0.107321 0.00322736 0)
(-0.108422 0.00308293 0)
(-0.109473 0.00294176 0)
(-0.110476 0.00280381 0)
(-0.11143 0.00266899 0)
(-0.112338 0.00253723 0)
(-0.1132 0.0024084 0)
(-0.114018 0.00228237 0)
(-0.114791 0.00215899 0)
(-0.115522 0.00203808 0)
(-0.11621 0.00191945 0)
(-0.116857 0.0018029 0)
(-0.117463 0.00168822 0)
(-0.118029 0.00157517 0)
(-0.118555 0.00146351 0)
(-0.119042 0.00135299 0)
(-0.119489 0.00124334 0)
(-0.119898 0.0011343 0)
(-0.120269 0.0010256 0)
(-0.1206 0.000916933 0)
(-0.120893 0.000808024 0)
(-0.121148 0.000698574 0)
(-0.121363 0.000588286 0)
(-0.121539 0.000476857 0)
(-0.121676 0.000363986 0)
(-0.121772 0.000249367 0)
(-0.121827 0.000132699 0)
(-0.121841 1.36809e-05 0)
(-0.121812 -0.000107987 0)
(-0.12174 -0.000232597 0)
(-0.121623 -0.000360439 0)
(-0.12146 -0.000491794 0)
(-0.121251 -0.000626933 0)
(-0.120994 -0.000766119 0)
(-0.120687 -0.000909601 0)
(-0.120329 -0.00105761 0)
(-0.119918 -0.00121038 0)
(-0.119454 -0.00136809 0)
(-0.118933 -0.00153094 0)
(-0.118355 -0.00169907 0)
(-0.117718 -0.00187262 0)
(-0.117019 -0.0020517 0)
(-0.116258 -0.00223636 0)
(-0.115431 -0.00242665 0)
(-0.114538 -0.00262257 0)
(-0.113577 -0.00282408 0)
(-0.112545 -0.00303109 0)
(-0.111441 -0.00324348 0)
(-0.110263 -0.00346106 0)
(-0.10901 -0.0036836 0)
(-0.10768 -0.00391081 0)
(-0.106271 -0.00414234 0)
(-0.104783 -0.00437778 0)
(-0.103214 -0.00461664 0)
(-0.101563 -0.00485837 0)
(-0.0998291 -0.00510237 0)
(-0.0980124 -0.00534792 0)
(-0.0961123 -0.00559426 0)
(-0.0941287 -0.00584054 0)
(-0.092062 -0.00608583 0)
(-0.0899128 -0.00632911 0)
(-0.0876819 -0.00656929 0)
(-0.0853709 -0.0068052 0)
(-0.0829814 -0.00703556 0)
(-0.0805157 -0.00725905 0)
(-0.0779763 -0.00747424 0)
(-0.0753665 -0.00767964 0)
(-0.0726898 -0.00787369 0)
(-0.0699505 -0.00805473 0)
(-0.0671533 -0.00822108 0)
(-0.0643035 -0.00837098 0)
(-0.0614069 -0.00850261 0)
(-0.05847 -0.00861414 0)
(-0.0554999 -0.00870368 0)
(-0.0525043 -0.00876933 0)
(-0.0494915 -0.00880919 0)
(-0.0464704 -0.00882133 0)
(-0.0434505 -0.0088039 0)
(-0.0404418 -0.00875503 0)
(-0.037455 -0.00867294 0)
(-0.0345013 -0.00855594 0)
(-0.0315923 -0.00840241 0)
(-0.0287401 -0.00821091 0)
(-0.0259572 -0.00798015 0)
(-0.0232562 -0.00770908 0)
(-0.0206502 -0.00739691 0)
(-0.0181521 -0.00704319 0)
(-0.0157749 -0.00664793 0)
(-0.0135313 -0.00621164 0)
(-0.0114338 -0.00573553 0)
(-0.00949378 -0.00522168 0)
(-0.00772206 -0.00467325 0)
(-0.00612795 -0.00409485 0)
(-0.00471905 -0.00349294 0)
(-0.00350074 -0.0028764 0)
(-0.00247558 -0.00225722 0)
(-0.00164267 -0.00165156 0)
(-0.000996965 -0.00108093 0)
(-0.000528364 -0.000573811 0)
(-0.00022068 -0.000167369 0)
(-5.27516e-05 9.02965e-05 0)
(-4.33418e-07 0.000132735 0)
(-7.72277e-06 -9.58028e-05 0)
(-8.99873e-05 2.18113e-05 0)
(-0.000311407 0.000359938 0)
(-0.000684142 0.000853182 0)
(-0.00122226 0.00145292 0)
(-0.00193801 0.00212069 0)
(-0.00283875 0.00282633 0)
(-0.00392765 0.00354653 0)
(-0.00520451 0.00426345 0)
(-0.00666622 0.00496356 0)
(-0.00830725 0.00563673 0)
(-0.0101201 0.00627555 0)
(-0.0120958 0.00687469 0)
(-0.014224 0.00743053 0)
(-0.0164938 0.00794075 0)
(-0.0188934 0.00840407 0)
(-0.0214109 0.00882004 0)
(-0.024034 0.00918888 0)
(-0.0267506 0.0095113 0)
(-0.0295486 0.00978842 0)
(-0.0324161 0.0100217 0)
(-0.0353417 0.0102128 0)
(-0.0383141 0.0103635 0)
(-0.0413228 0.010476 0)
(-0.0443576 0.0105522 0)
(-0.0474088 0.0105944 0)
(-0.0504673 0.0106047 0)
(-0.0535246 0.0105853 0)
(-0.0565727 0.0105384 0)
(-0.0596042 0.0104662 0)
(-0.0626122 0.0103707 0)
(-0.0655906 0.0102541 0)
(-0.0685335 0.0101183 0)
(-0.0714358 0.0099653 0)
(-0.0742928 0.00979688 0)
(-0.0771004 0.00961484 0)
(-0.0798548 0.00942087 0)
(-0.0825528 0.00921656 0)
(-0.0851916 0.00900341 0)
(-0.0877688 0.00878285 0)
(-0.0902824 0.00855618 0)
(-0.0927307 0.00832465 0)
(-0.0951124 0.00808941 0)
(-0.0974266 0.0078515 0)
(-0.0996725 0.00761191 0)
(-0.10185 0.0073715 0)
(-0.103958 0.0071311 0)
(-0.105997 0.00689143 0)
(-0.107967 0.00665314 0)
(-0.10987 0.00641681 0)
(-0.111704 0.00618294 0)
(-0.113471 0.00595198 0)
(-0.115172 0.0057243 0)
(-0.116808 0.00550023 0)
(-0.118379 0.00528003 0)
(-0.119887 0.0050639 0)
(-0.121333 0.004852 0)
(-0.122718 0.00464443 0)
(-0.124043 0.00444127 0)
(-0.125309 0.00424252 0)
(-0.126518 0.00404817 0)
(-0.127671 0.00385817 0)
(-0.128769 0.00367242 0)
(-0.129812 0.00349079 0)
(-0.130804 0.00331314 0)
(-0.131743 0.00313927 0)
(-0.132632 0.00296899 0)
(-0.133471 0.00280206 0)
(-0.134261 0.00263821 0)
(-0.135004 0.00247719 0)
(-0.135699 0.00231869 0)
(-0.136347 0.0021624 0)
(-0.13695 0.002008 0)
(-0.137507 0.00185513 0)
(-0.138019 0.00170345 0)
(-0.138486 0.00155258 0)
(-0.138908 0.00140216 0)
(-0.139285 0.00125179 0)
(-0.139618 0.00110108 0)
(-0.139906 0.00094963 0)
(-0.140149 0.000797033 0)
(-0.140346 0.000642881 0)
(-0.140498 0.000486764 0)
(-0.140603 0.000328269 0)
(-0.14066 0.000166986 0)
(-0.140669 2.50567e-06 0)
(-0.140629 -0.000165575 0)
(-0.140539 -0.000337654 0)
(-0.140398 -0.000514122 0)
(-0.140204 -0.000695358 0)
(-0.139956 -0.00088173 0)
(-0.139652 -0.00107359 0)
(-0.139292 -0.00127128 0)
(-0.138872 -0.00147511 0)
(-0.138393 -0.00168537 0)
(-0.137851 -0.00190234 0)
(-0.137244 -0.00212625 0)
(-0.136572 -0.00235732 0)
(-0.135832 -0.00259571 0)
(-0.135021 -0.00284155 0)
(-0.134138 -0.00309495 0)
(-0.133181 -0.00335594 0)
(-0.132148 -0.00362452 0)
(-0.131036 -0.00390063 0)
(-0.129844 -0.00418414 0)
(-0.12857 -0.00447488 0)
(-0.127211 -0.00477259 0)
(-0.125766 -0.00507694 0)
(-0.124233 -0.00538754 0)
(-0.122611 -0.0057039 0)
(-0.120898 -0.00602545 0)
(-0.119093 -0.00635154 0)
(-0.117194 -0.00668141 0)
(-0.115202 -0.00701422 0)
(-0.113115 -0.00734902 0)
(-0.110933 -0.00768474 0)
(-0.108656 -0.00802024 0)
(-0.106285 -0.00835425 0)
(-0.10382 -0.00868538 0)
(-0.101263 -0.00901215 0)
(-0.098614 -0.00933296 0)
(-0.0958763 -0.0096461 0)
(-0.0930521 -0.00994975 0)
(-0.0901444 -0.010242 0)
(-0.0871568 -0.0105208 0)
(-0.0840934 -0.0107841 0)
(-0.080959 -0.0110296 0)
(-0.0777589 -0.011255 0)
(-0.0744992 -0.011458 0)
(-0.0711864 -0.0116362 0)