/*--------------------------------*- C++ -*----------------------------------*\
  =========                 |
  \\      /  F ield         | OpenFOAM: The Open Source CFD Toolbox
   \\    /   O peration     | Website:  https://openfoam.org
    \\  /    A nd           | Version:  7
     \\/     M anipulation  |
\*---------------------------------------------------------------------------*/
FoamFile
{
    version     2.0;
    format      ascii;
    class       surfaceScalarField;
    location    "0.4375";
    object      phi;
}
// * * * * * * * * * * * * * * * * * * * * * * * * * * * * * * * * * * * * * //

dimensions      [0 3 -1 0 0 0 0];

internalField   nonuniform List<scalar> 
101920
(
-1.1601e-13
1.37754e-13
-6.34335e-13
5.16031e-13
-7.68331e-13
1.34125e-13
-6.85693e-13
-8.0083e-14
-3.4127e-13
-3.43296e-13
2.20492e-13
-5.6218e-13
9.58447e-13
-7.3783e-13
1.83652e-12
-8.79014e-13
2.83011e-12
-9.94168e-13
3.91561e-12
-1.08672e-12
5.07635e-12
-1.15953e-12
6.29491e-12
-1.21746e-12
7.55961e-12
-1.26204e-12
8.85594e-12
-1.29612e-12
1.01732e-11
-1.31776e-12
1.15009e-11
-1.32898e-12
1.28314e-11
-1.33021e-12
1.41561e-11
-1.32449e-12
1.5468e-11
-1.31283e-12
1.67619e-11
-1.29298e-12
1.803e-11
-1.26839e-12
1.92689e-11
-1.2378e-12
2.04739e-11
-1.20334e-12
2.16414e-11
-1.16695e-12
2.27698e-11
-1.12665e-12
2.38544e-11
-1.08393e-12
2.4893e-11
-1.03946e-12
2.58854e-11
-9.92176e-13
2.68285e-11
-9.43502e-13
2.77221e-11
-8.9435e-13
2.85663e-11
-8.44316e-13
2.93594e-11
-7.94187e-13
3.01017e-11
-7.43893e-13
3.07944e-11
-6.9363e-13
3.14368e-11
-6.44574e-13
3.20301e-11
-5.95536e-13
3.25756e-11
-5.46277e-13
3.3074e-11
-4.98984e-13
3.35269e-11
-4.53199e-13
3.39363e-11
-4.08121e-13
3.43024e-11
-3.65559e-13
3.46273e-11
-3.25241e-13
3.49137e-11
-2.85832e-13
3.51626e-11
-2.48042e-13
3.5376e-11
-2.12693e-13
3.55567e-11
-1.79687e-13
3.57062e-11
-1.48858e-13
3.58257e-11
-1.20132e-13
3.59181e-11
-9.30077e-14
3.59855e-11
-6.81766e-14
3.60304e-11
-4.57542e-14
3.60549e-11
-2.53024e-14
3.6061e-11
-6.68368e-15
3.60508e-11
9.95994e-15
3.60263e-11
2.4337e-14
3.599e-11
3.66673e-14
3.59442e-11
4.71901e-14
3.58901e-11
5.49817e-14
3.58293e-11
5.98463e-14
3.57645e-11
6.34792e-14
3.56976e-11
6.64084e-14
3.56294e-11
6.73997e-14
3.55615e-11
6.653e-14
3.54961e-11
6.4764e-14
3.54347e-11
6.17842e-14
3.53781e-11
5.72272e-14
3.53283e-11
5.14793e-14
3.52866e-11
4.42629e-14
3.52534e-11
3.50057e-14
3.52298e-11
2.40811e-14
3.52169e-11
1.2379e-14
3.52148e-11
5.18866e-16
3.52236e-11
-1.12607e-14
3.5245e-11
-2.28272e-14
3.528e-11
-3.42902e-14
3.53283e-11
-4.6465e-14
3.53895e-11
-6.00822e-14
3.5464e-11
-7.46151e-14
3.5552e-11
-8.87428e-14
3.56532e-11
-1.01821e-13
3.57676e-11
-1.14204e-13
3.58946e-11
-1.26289e-13
3.6034e-11
-1.38295e-13
3.61844e-11
-1.50189e-13
3.6345e-11
-1.61498e-13
3.6516e-11
-1.71873e-13
3.66963e-11
-1.81043e-13
3.68841e-11
-1.88814e-13
3.70781e-11
-1.95288e-13
3.72778e-11
-2.00309e-13
3.74831e-11
-2.03981e-13
3.76919e-11
-2.06966e-13
3.79013e-11
-2.09254e-13
3.81102e-11
-2.10089e-13
3.83176e-11
-2.08664e-13
3.85226e-11
-2.05049e-13
3.87228e-11
-1.9991e-13
3.89154e-11
-1.92983e-13
3.90994e-11
-1.83855e-13
3.92727e-11
-1.72732e-13
3.94332e-11
-1.59799e-13
3.95792e-11
-1.45317e-13
3.97084e-11
-1.29004e-13
3.98186e-11
-1.1021e-13
3.9908e-11
-8.92407e-14
3.99744e-11
-6.65453e-14
4.00158e-11
-4.18627e-14
4.00304e-11
-1.49137e-14
4.00153e-11
1.46877e-14
3.99688e-11
4.67952e-14
3.98893e-11
8.04554e-14
3.97743e-11
1.15527e-13
3.96222e-11
1.52485e-13
3.94307e-11
1.91304e-13
3.91973e-11
2.32362e-13
3.89214e-11
2.75726e-13
3.86017e-11
3.20567e-13
3.82358e-11
3.66535e-13
3.78224e-11
4.13564e-13
3.73599e-11
4.61621e-13
3.6847e-11
5.11328e-13
3.62839e-11
5.62708e-13
3.56698e-11
6.14677e-13
3.50027e-11
6.67023e-13
3.42824e-11
7.20195e-13
3.35094e-11
7.73601e-13
3.26831e-11
8.26671e-13
3.18038e-11
8.79447e-13
3.08718e-11
9.31606e-13
2.98874e-11
9.83052e-13
2.88529e-11
1.03375e-12
2.77705e-11
1.08285e-12
2.66406e-11
1.12982e-12
2.54653e-11
1.17479e-12
2.42482e-11
1.21727e-12
2.29915e-11
1.25666e-12
2.16983e-11
1.29292e-12
2.03734e-11
1.32526e-12
1.9021e-11
1.35232e-12
1.76459e-11
1.37402e-12
1.62548e-11
1.39059e-12
1.48543e-11
1.40086e-12
1.34503e-11
1.40382e-12
1.20513e-11
1.39908e-12
1.06668e-11
1.38543e-12
9.30594e-12
1.36142e-12
7.97915e-12
1.32646e-12
6.69875e-12
1.27986e-12
5.47741e-12
1.22038e-12
4.32886e-12
1.14715e-12
3.26942e-12
1.05919e-12
2.31626e-12
9.54392e-13
1.48566e-12
8.31223e-13
7.95235e-13
6.8992e-13
2.63686e-13
5.31316e-13
-9.33303e-14
3.57205e-13
-2.67466e-13
1.73784e-13
-2.65697e-13
-3.12702e-15
-1.32098e-13
-1.35819e-13
-1.34544e-13
3.04743e-13
-1.69299e-13
3.58584e-13
4.70975e-13
4.69733e-13
1.88475e-14
1.05537e-12
-6.67902e-13
2.11591e-12
-1.40276e-12
3.63551e-12
-2.08439e-12
5.57748e-12
-2.67735e-12
7.88115e-12
-3.18441e-12
1.04977e-11
-3.60958e-12
1.33755e-11
-3.96368e-12
1.64656e-11
-4.25378e-12
1.97302e-11
-4.48361e-12
2.3128e-11
-4.66264e-12
2.66273e-11
-4.79461e-12
3.01952e-11
-4.88538e-12
3.38035e-11
-4.93668e-12
3.74261e-11
-4.95348e-12
4.10398e-11
-4.94064e-12
4.46269e-11
-4.89826e-12
4.8166e-11
-4.83305e-12
5.16424e-11
-4.74593e-12
5.50405e-11
-4.63833e-12
5.8348e-11
-4.51515e-12
6.15558e-11
-4.37645e-12
6.46531e-11
-4.22495e-12
6.7632e-11
-4.06402e-12
7.04869e-11
-3.89376e-12
7.32112e-11
-3.71619e-12
7.58006e-11
-3.53355e-12
7.82536e-11
-3.34631e-12
8.05666e-11
-3.15664e-12
8.27389e-11
-2.96529e-12
8.47715e-11
-2.7731e-12
8.66632e-11
-2.58284e-12
8.84158e-11
-2.39474e-12
9.0032e-11
-2.20841e-12
9.15125e-11
-2.02633e-12
9.28611e-11
-1.84883e-12
9.40823e-11
-1.67466e-12
9.5179e-11
-1.50569e-12
9.61558e-11
-1.34374e-12
9.70181e-11
-1.18806e-12
9.77701e-11
-1.03891e-12
9.84164e-11
-8.97161e-13
9.89637e-11
-7.62201e-13
9.94179e-11
-6.34865e-13
9.97839e-11
-5.1564e-13
1.00068e-10
-4.04153e-13
1.00278e-10
-3.00972e-13
1.00417e-10
-2.06825e-13
1.00493e-10
-1.21221e-13
1.00511e-10
-4.34805e-14
1.00479e-10
2.60937e-14
1.00402e-10
8.66902e-14
1.00286e-10
1.38954e-13
1.00137e-10
1.84381e-13
9.99605e-11
2.22685e-13
9.97627e-11
2.52585e-13
9.95495e-11
2.74381e-13
9.93256e-11
2.89315e-13
9.90953e-11
2.97657e-13
9.88647e-11
2.99217e-13
9.86389e-11
2.94336e-13
9.84212e-11
2.83178e-13
9.82153e-11
2.65976e-13
9.8026e-11
2.43925e-13
9.78574e-11
2.17859e-13
9.77123e-11
1.87263e-13
9.75935e-11
1.5239e-13
9.75049e-11
1.14357e-13
9.74494e-11
7.27942e-14
9.74275e-11
2.68081e-14
9.74405e-11
-2.26115e-14
9.74908e-11
-7.35066e-14
9.75797e-11
-1.24882e-13
9.7708e-11
-1.7684e-13
9.78769e-11
-2.29698e-13
9.80874e-11
-2.83491e-13
9.83382e-11
-3.37885e-13
9.86278e-11
-3.91998e-13
9.89561e-11
-4.44541e-13
9.93227e-11
-4.94608e-13
9.97267e-11
-5.42442e-13
1.00165e-10
-5.88666e-13
1.00636e-10
-6.3248e-13
1.01138e-10
-6.72634e-13
1.01668e-10
-7.0921e-13
1.02223e-10
-7.4262e-13
1.02799e-10
-7.72321e-13
1.03393e-10
-7.96845e-13
1.04001e-10
-8.1508e-13
1.0462e-10
-8.27588e-13
1.05246e-10
-8.35023e-13
1.05875e-10
-8.36935e-13
1.065e-10
-8.32575e-13
1.07116e-10
-8.2135e-13
1.07721e-10
-8.03273e-13
1.08307e-10
-7.78326e-13
1.0887e-10
-7.46036e-13
1.09404e-10
-7.06358e-13
1.09902e-10
-6.5907e-13
1.1036e-10
-6.0371e-13
1.10773e-10
-5.40445e-13
1.11132e-10
-4.6922e-13
1.11433e-10
-3.89803e-13
1.11669e-10
-3.02472e-13
1.11834e-10
-2.07133e-13
1.11924e-10
-1.03603e-13
1.11931e-10
7.90279e-15
1.11849e-10
1.2777e-13
1.11673e-10
2.5611e-13
1.11396e-10
3.92129e-13
1.11015e-10
5.35407e-13
1.10523e-10
6.85358e-13
1.09914e-10
8.41588e-13
1.09183e-10
1.00491e-12
1.08327e-10
1.17542e-12
1.0734e-10
1.35202e-12
1.06219e-10
1.53392e-12
1.04961e-10
1.72051e-12
1.03561e-10
1.91129e-12
1.02017e-10
2.10637e-12
1.00327e-10
2.30501e-12
9.84893e-11
2.50553e-12
9.65017e-11
2.70752e-12
9.43642e-11
2.91082e-12
9.20766e-11
3.11388e-12
8.96397e-11
3.31553e-12
8.70557e-11
3.5152e-12
8.43264e-11
3.71159e-12
8.1455e-11
3.90362e-12
7.84471e-11
4.09037e-12
7.53075e-11
4.26995e-12
7.20418e-11
4.44048e-12
6.8658e-11
4.60085e-12
6.5165e-11
4.74955e-12
6.15722e-11
4.88466e-12
5.78915e-11
5.00456e-12
5.41367e-11
5.10707e-12
5.03219e-11
5.18931e-12
4.64635e-11
5.24926e-12
4.25806e-11
5.28485e-12
3.86924e-11
5.29272e-12
3.48208e-11
5.26979e-12
3.09911e-11
5.21386e-12
2.72299e-11
5.12189e-12
2.35663e-11
4.98979e-12
2.00321e-11
4.81385e-12
1.66618e-11
4.59088e-12
1.34917e-11
4.31724e-12
1.05603e-11
3.98955e-12
7.90903e-12
3.60516e-12
5.57907e-12
3.16186e-12
3.61007e-12
2.65944e-12
2.03795e-12
2.10284e-12
8.8912e-13
1.50533e-12
1.71362e-13
8.92668e-13
-1.41728e-13
3.13093e-13
-1.33234e-13
-1.40091e-13
-2.6879e-13
1.97766e-13
-3.66938e-13
8.38043e-13
-1.7297e-13
1.72215e-12
-8.64197e-13
3.10604e-12
-2.05078e-12
5.07066e-12
-3.36815e-12
7.62928e-12
-4.64128e-12
1.075e-11
-5.79938e-12
1.43826e-11
-6.81708e-12
1.84667e-11
-7.69284e-12
2.29366e-11
-8.43338e-12
2.77328e-11
-9.04694e-12
3.27915e-11
-9.54413e-12
3.80594e-11
-9.93205e-12
4.34854e-11
-1.02213e-11
4.90215e-11
-1.04208e-11
5.46238e-11
-1.0538e-11
6.02514e-11
-1.05825e-11
6.58708e-11
-1.0559e-11
7.14479e-11
-1.04754e-11
7.69543e-11
-1.03385e-11
8.23649e-11
-1.01533e-11
8.76544e-11
-9.92775e-12
9.28054e-11
-9.66454e-12
9.77987e-11
-9.36921e-12
1.02619e-10
-9.04702e-12
1.07256e-10
-8.70039e-12
1.11696e-10
-8.33464e-12
1.15932e-10
-7.95339e-12
1.19958e-10
-7.55929e-12
1.23767e-10
-7.1566e-12
1.27355e-10
-6.74782e-12
1.30723e-10
-6.33459e-12
1.33868e-10
-5.92071e-12
1.36791e-10
-5.50846e-12
1.39495e-10
-5.09868e-12
1.41981e-10
-4.69493e-12
1.44254e-10
-4.29946e-12
1.46319e-10
-3.91245e-12
1.4818e-10
-3.53553e-12
1.49844e-10
-3.17057e-12
1.51319e-10
-2.818e-12
1.52612e-10
-2.47932e-12
1.5373e-10
-2.15594e-12
1.54682e-10
-1.84821e-12
1.55476e-10
-1.55686e-12
1.56123e-10
-1.28217e-12
1.5663e-10
-1.02453e-12
1.5701e-10
-7.83937e-13
1.57269e-10
-5.61514e-13
1.57419e-10
-3.57866e-13
1.5747e-10
-1.72351e-13
1.57431e-10
-4.49286e-15
1.57312e-10
1.45096e-13
1.57123e-10
2.75918e-13
1.56875e-10
3.88803e-13
1.56576e-10
4.84396e-13
1.56234e-10
5.62693e-13
1.5586e-10
6.24426e-13
1.55464e-10
6.70186e-13
1.55053e-10
6.99906e-13
1.54634e-10
7.14588e-13
1.54217e-10
7.1559e-13
1.5381e-10
7.02858e-13
1.53418e-10
6.76148e-13
1.5305e-10
6.36668e-13
1.52711e-10
5.85767e-13
1.52407e-10
5.23707e-13
1.52143e-10
4.50863e-13
1.51925e-10
3.69077e-13
1.51757e-10
2.80316e-13
1.51643e-10
1.84866e-13
1.51587e-10
8.24992e-14
1.51591e-10
-2.59113e-14
1.5166e-10
-1.39201e-13
1.51792e-10
-2.56425e-13
1.51991e-10
-3.76156e-13
1.52257e-10
-4.96868e-13
1.52591e-10
-6.17905e-13
1.52993e-10
-7.39167e-13
1.53462e-10
-8.59828e-13
1.53997e-10
-9.78189e-13
1.54595e-10
-1.09285e-12
1.55255e-10
-1.20318e-12
1.55974e-10
-1.30871e-12
1.56748e-10
-1.40818e-12
1.57575e-10
-1.50001e-12
1.58448e-10
-1.5837e-12
1.59365e-10
-1.65907e-12
1.6032e-10
-1.72543e-12
1.61307e-10
-1.78202e-12
1.62319e-10
-1.82749e-12
1.6335e-10
-1.86052e-12
1.64394e-10
-1.88054e-12
1.65445e-10
-1.88718e-12
1.66493e-10
-1.88032e-12
1.67531e-10
-1.85922e-12
1.6855e-10
-1.82266e-12
1.69543e-10
-1.77038e-12
1.70501e-10
-1.70241e-12
1.71414e-10
-1.61841e-12
1.72272e-10
-1.51781e-12
1.73068e-10
-1.39958e-12
1.73791e-10
-1.26348e-12
1.74433e-10
-1.11007e-12
1.74981e-10
-9.39029e-13
1.75428e-10
-7.49859e-13
1.75764e-10
-5.42644e-13
1.75978e-10
-3.1741e-13
1.76062e-10
-7.47285e-14
1.76005e-10
1.84988e-13
1.75799e-10
4.62335e-13
1.75433e-10
7.57063e-13
1.74899e-10
1.06824e-12
1.74189e-10
1.39529e-12
1.73295e-10
1.73718e-12
1.72207e-10
2.09312e-12
1.70919e-10
2.46318e-12
1.69423e-10
2.84661e-12
1.67713e-10
3.24212e-12
1.65784e-10
3.64874e-12
1.63631e-10
4.06494e-12
1.61248e-10
4.48906e-12
1.58632e-10
4.92029e-12
1.5578e-10
5.35691e-12
1.52692e-10
5.79633e-12
1.49365e-10
6.23719e-12
1.458e-10
6.67805e-12
1.41998e-10
7.11632e-12
1.37962e-10
7.54988e-12
1.33697e-10
7.97656e-12
1.29208e-10
8.39317e-12
1.24501e-10
8.79687e-12
1.19585e-10
9.18514e-12
1.14471e-10
9.55447e-12
1.09171e-10
9.90099e-12
1.037e-10
1.02215e-11
9.80716e-11
1.05124e-11
9.23064e-11
1.07692e-11
8.6425e-11
1.09877e-11
8.04507e-11
1.11633e-11
7.44099e-11
1.12907e-11
6.8331e-11
1.13642e-11
6.22454e-11
1.13785e-11
5.61884e-11
1.13274e-11
5.01982e-11
1.12045e-11
4.4315e-11
1.10039e-11
3.85839e-11
1.07196e-11
3.30537e-11
1.03441e-11
2.77754e-11
9.86984e-12
2.28027e-11
9.2907e-12
1.81921e-11
8.601e-12
1.40011e-11
7.79636e-12
1.02862e-11
6.87588e-12
7.10193e-12
5.84357e-12
4.49449e-12
4.71106e-12
2.49375e-12
3.50499e-12
1.10605e-12
2.2772e-12
3.01624e-13
1.1158e-12
-5.14572e-15
1.69069e-13
-2.73707e-13
3.348e-13
-6.99447e-13
1.31057e-12
-1.15085e-12
2.85175e-12
-2.40456e-12
5.04519e-12
-4.24492e-12
7.94072e-12
-6.26412e-12
1.15395e-11
-8.24107e-12
1.58109e-11
-1.0071e-11
2.06999e-11
-1.17069e-11
2.61397e-11
-1.31343e-11
3.20592e-11
-1.43531e-11
3.83863e-11
-1.53727e-11
4.50479e-11
-1.62042e-11
5.19746e-11
-1.68597e-11
5.91037e-11
-1.73506e-11
6.63746e-11
-1.7691e-11
7.37297e-11
-1.78949e-11
8.11205e-11
-1.79726e-11
8.84985e-11
-1.79373e-11
9.58207e-11
-1.77998e-11
1.03051e-10
-1.7569e-11
1.10153e-10
-1.72579e-11
1.17099e-10
-1.68732e-11
1.2386e-10
-1.64245e-11
1.30412e-10
-1.59221e-11
1.36736e-10
-1.5371e-11
1.42815e-10
-1.47792e-11
1.48634e-10
-1.41542e-11
1.54182e-10
-1.35007e-11
1.59449e-10
-1.28258e-11
1.64428e-10
-1.21355e-11
1.69116e-10
-1.14333e-11
1.73507e-10
-1.07251e-11
1.77602e-10
-1.00158e-11
1.81402e-10
-9.30756e-12
1.84907e-10
-8.60491e-12
1.88123e-10
-7.91217e-12
1.91054e-10
-7.23125e-12
1.93707e-10
-6.56523e-12
1.96088e-10
-5.91779e-12
1.98207e-10
-5.29011e-12
2.00073e-10
-4.68423e-12
2.01694e-10
-4.10223e-12
2.03083e-10
-3.54554e-12
2.04251e-10
-3.01579e-12
2.05209e-10
-2.51459e-12
2.0597e-10
-2.04272e-12
2.06546e-10
-1.60043e-12
2.06951e-10
-1.18854e-12
2.07197e-10
-8.08247e-13
2.07299e-10
-4.59477e-13
2.07269e-10
-1.42017e-13
2.0712e-10
1.43588e-13
2.06866e-10
3.97443e-13
2.06521e-10
6.20418e-13
2.06098e-10
8.12754e-13
2.0561e-10
9.74047e-13
2.05068e-10
1.10497e-12
2.04485e-10
1.20721e-12
2.03875e-10
1.28136e-12
2.03248e-10
1.32755e-12
2.02615e-10
1.34741e-12
2.01988e-10
1.34257e-12
2.01376e-10
1.31346e-12
2.00789e-10
1.26133e-12
2.00237e-10
1.18816e-12
1.99728e-10
1.09484e-12
1.99271e-10
9.81996e-13
1.98872e-10
8.51225e-13
1.9854e-10
7.0439e-13
1.98279e-10
5.43084e-13
1.98094e-10
3.69044e-13
1.9799e-10
1.8416e-13
1.97974e-10
-9.82966e-15
1.98047e-10
-2.11747e-13
1.98212e-10
-4.20482e-13
1.98471e-10
-6.34132e-13
1.98825e-10
-8.50555e-13
1.99274e-10
-1.068e-12
1.99819e-10
-1.28486e-12
2.00458e-10
-1.4994e-12
2.01191e-10
-1.70996e-12
2.02014e-10
-1.91514e-12
2.02924e-10
-2.11325e-12
2.03918e-10
-2.30231e-12
2.04992e-10
-2.4808e-12
2.06139e-10
-2.64733e-12
2.07354e-10
-2.80026e-12
2.0863e-10
-2.93769e-12
2.09963e-10
-3.05795e-12
2.11343e-10
-3.16052e-12
2.12761e-10
-3.24464e-12
2.14208e-10
-3.30809e-12
2.15677e-10
-3.34903e-12
2.17157e-10
-3.36658e-12
2.18637e-10
-3.36016e-12
2.20107e-10
-3.32895e-12
2.21556e-10
-3.27125e-12
2.22971e-10
-3.18601e-12
2.24342e-10
-3.07309e-12
2.25655e-10
-2.93181e-12
2.26899e-10
-2.76124e-12
2.28061e-10
-2.56055e-12
2.29127e-10
-2.32907e-12
2.30084e-10
-2.06705e-12
2.30921e-10
-1.77456e-12
2.31622e-10
-1.45077e-12
2.32175e-10
-1.09554e-12
2.32566e-10
-7.09141e-13
2.32782e-10
-2.91693e-13
2.32812e-10
1.55942e-13
2.32642e-10
6.33183e-13
2.32259e-10
1.13982e-12
2.31652e-10
1.67495e-12
2.30807e-10
2.23792e-12
2.29716e-10
2.82798e-12
2.28366e-10
3.44312e-12
2.26748e-10
4.08153e-12
2.24852e-10
4.74237e-12
2.22669e-10
5.42424e-12
2.20192e-10
6.12508e-12
2.17414e-10
6.84271e-12
2.14329e-10
7.57418e-12
2.10931e-10
8.31686e-12
2.07218e-10
9.06882e-12
2.03188e-10
9.82674e-12
1.98838e-10
1.05866e-11
1.94169e-10
1.13456e-11
1.89184e-10
1.21005e-11
1.83887e-10
1.28469e-11
1.78282e-10
1.35807e-11
1.72378e-10
1.42972e-11
1.66184e-10
1.49911e-11
1.59712e-10
1.56573e-11
1.52974e-10
1.62908e-11
1.4599e-10
1.68856e-11
1.38777e-10
1.7435e-11
1.31357e-10
1.79324e-11
1.23755e-10
1.83713e-11
1.16e-10
1.87439e-11
1.08121e-10
1.9042e-11
1.00153e-10
1.92575e-11
9.2136e-11
1.93814e-11
8.41096e-11
1.94041e-11
7.61201e-11
1.93162e-11
6.82182e-11
1.91077e-11
6.04561e-11
1.87675e-11
5.28901e-11
1.82852e-11
4.55826e-11
1.76512e-11
3.85983e-11
1.68547e-11
3.20041e-11
1.58856e-11
2.58691e-11
1.47361e-11
2.02635e-11
1.34023e-11
1.52547e-11
1.18848e-11
1.09055e-11
1.01926e-11
7.27014e-12
8.34779e-12
4.385e-12
6.39257e-12
2.26117e-12
4.40176e-12
8.76923e-13
2.4988e-12
1.67861e-13
8.79102e-13
-1.05496e-13
4.29168e-13
-1.12757e-12
1.77901e-12
-2.49949e-12
3.93792e-12
-4.56434e-12
6.91233e-12
-7.21997e-12
1.07093e-11
-1.00617e-11
1.5309e-11
-1.28424e-11
2.0671e-11
-1.54311e-11
2.6732e-11
-1.77675e-11
3.34205e-11
-1.98219e-11
4.06554e-11
-2.15902e-11
4.83589e-11
-2.30764e-11
5.64479e-11
-2.42947e-11
6.48471e-11
-2.52578e-11
7.34795e-11
-2.59827e-11
8.22742e-11
-2.64876e-11
9.11685e-11
-2.67882e-11
1.001e-10
-2.69036e-11
1.09013e-10
-2.68501e-11
1.17858e-10
-2.66429e-11
1.26587e-10
-2.62989e-11
1.3516e-10
-2.58314e-11
1.43541e-10
-2.52535e-11
1.51695e-10
-2.45801e-11
1.59596e-10
-2.38225e-11
1.67217e-10
-2.29921e-11
1.74538e-10
-2.21008e-11
1.81541e-10
-2.11575e-11
1.88211e-10
-2.01718e-11
1.94537e-10
-1.91535e-11
2.00511e-10
-1.81096e-11
2.06125e-10
-1.70484e-11
2.11377e-10
-1.59781e-11
2.16266e-10
-1.49039e-11
2.20792e-10
-1.38324e-11
2.24956e-10
-1.27703e-11
2.28766e-10
-1.17217e-11
2.32225e-10
-1.06909e-11
2.35342e-10
-9.68305e-12
2.38127e-10
-8.70223e-12
2.40589e-10
-7.75179e-12
2.4274e-10
-6.83491e-12
2.44592e-10
-5.95453e-12
2.46158e-10
-5.11251e-12
2.47453e-10
-4.31142e-12
2.48492e-10
-3.55355e-12
2.49288e-10
-2.83982e-12
2.4986e-10
-2.17145e-12
2.50221e-10
-1.55054e-12
2.5039e-10
-9.77243e-13
2.50382e-10
-4.51348e-13
2.50215e-10
2.61727e-14
2.49904e-10
4.54496e-13
2.49467e-10
8.34418e-13
2.4892e-10
1.1671e-12
2.48279e-10
1.45271e-12
2.47561e-10
1.69142e-12
2.46782e-10
1.88425e-12
2.45957e-10
2.03256e-12
2.45099e-10
2.13767e-12
2.44226e-10
2.20102e-12
2.43352e-10
2.22397e-12
2.42488e-10
2.20775e-12
2.41647e-10
2.15409e-12
2.40844e-10
2.06562e-12
2.40088e-10
1.94442e-12
2.3939e-10
1.79172e-12
2.38761e-10
1.60978e-12
2.3821e-10
1.40173e-12
2.37746e-10
1.1695e-12
2.37376e-10
9.14492e-13
2.37107e-10
6.39251e-13
2.36945e-10
3.46908e-13
2.36895e-10
4.02349e-14
2.3696e-10
-2.78325e-13
2.37146e-10
-6.06452e-13
2.37455e-10
-9.41672e-13
2.37887e-10
-1.28162e-12
2.38444e-10
-1.62385e-12
2.39123e-10
-1.96523e-12
2.39926e-10
-2.30264e-12
2.4085e-10
-2.63392e-12
2.41892e-10
-2.95709e-12
2.43047e-10
-3.26934e-12
2.44312e-10
-3.56733e-12
2.45681e-10
-3.84888e-12
2.47147e-10
-4.11246e-12
2.48703e-10
-4.3557e-12
2.50341e-10
-4.57563e-12
2.52052e-10
-4.76949e-12
2.53826e-10
-4.93542e-12
2.55654e-10
-5.07214e-12
2.57524e-10
-5.17741e-12
2.59424e-10
-5.24889e-12
2.61343e-10
-5.2849e-12
2.63266e-10
-5.28372e-12
2.65182e-10
-5.2439e-12
2.67075e-10
-5.16403e-12
2.68931e-10
-5.04245e-12
2.70736e-10
-4.87804e-12
2.72473e-10
-4.6697e-12
2.74129e-10
-4.41611e-12
2.75686e-10
-4.11663e-12
2.77127e-10
-3.77061e-12
2.78437e-10
-3.37734e-12
2.79601e-10
-2.93685e-12
2.806e-10
-2.44888e-12
2.81418e-10
-1.91314e-12
2.82039e-10
-1.33006e-12
2.82446e-10
-6.99632e-13
2.82623e-10
-2.21305e-14
2.82556e-10
7.01011e-13
2.82227e-10
1.46858e-12
2.81622e-10
2.27963e-12
2.80727e-10
3.13293e-12
2.79526e-10
4.02727e-12
2.78008e-10
4.96073e-12
2.7616e-10
5.93022e-12
2.73968e-10
6.93323e-12
2.71424e-10
7.96797e-12
2.68518e-10
9.03147e-12
2.6524e-10
1.012e-11
2.61584e-10
1.12299e-11
2.57543e-10
1.23571e-11
2.53113e-10
1.34974e-11
2.48291e-10
1.46469e-11
2.43078e-10
1.58001e-11
2.37472e-10
1.69515e-11
2.31475e-10
1.80958e-11
2.25095e-10
1.92273e-11
2.18337e-10
2.0339e-11
2.1121e-10
2.14237e-11
2.03727e-10
2.24742e-11
1.95902e-10
2.34826e-11
1.87752e-10
2.44404e-11
1.79299e-10
2.53391e-11
1.70565e-10
2.61693e-11
1.61577e-10
2.69205e-11
1.52366e-10
2.75822e-11
1.42966e-10
2.8144e-11
1.33415e-10
2.85934e-11
1.23754e-10
2.89176e-11
1.14031e-10
2.91043e-11
1.04294e-10
2.91399e-11
9.45996e-11
2.90103e-11
8.50064e-11
2.87011e-11
7.55777e-11
2.81974e-11
6.63806e-11
2.74838e-11
5.74867e-11
2.65458e-11
4.89706e-11
2.53705e-11
4.09101e-11
2.39458e-11
3.33845e-11
2.22619e-11
2.64726e-11
2.03142e-11
2.025e-11
1.81068e-11
1.47872e-11
1.56549e-11
1.01455e-11
1.299e-11
6.37011e-12
1.01693e-11
3.48553e-12
7.28802e-12
1.48891e-12
4.4953e-12
3.49982e-13
2.0185e-12
2.44622e-13
5.47284e-13
-1.67533e-12
2.2529e-12
-4.20753e-12
4.99161e-12
-7.30115e-12
8.70232e-12
-1.09318e-11
1.3351e-11
-1.47122e-11
1.88944e-11
-1.83856e-11
2.52723e-11
-2.18109e-11
3.24171e-11
-2.49098e-11
4.02456e-11
-2.76498e-11
4.86723e-11
-3.0017e-11
5.76087e-11
-3.20155e-11
6.69701e-11
-3.36557e-11
7.66699e-11
-3.49559e-11
8.66237e-11
-3.5937e-11
9.67556e-11
-3.66189e-11
1.06991e-10
-3.70248e-11
1.17263e-10
-3.71761e-11
1.27509e-10
-3.70949e-11
1.37669e-10
-3.68038e-11
1.47692e-10
-3.63223e-11
1.57532e-10
-3.56697e-11
1.67144e-10
-3.48661e-11
1.76491e-10
-3.39283e-11
1.85542e-10
-3.28729e-11
1.94266e-10
-3.17168e-11
2.02639e-10
-3.04739e-11
2.10642e-10
-2.91589e-11
2.18255e-10
-2.77856e-11
2.25467e-10
-2.63651e-11
2.32267e-10
-2.49092e-11
2.38647e-10
-2.34297e-11
2.44604e-10
-2.19354e-11
2.50136e-10
-2.04357e-11
2.55243e-10
-1.89404e-11
2.59929e-10
-1.74568e-11
2.642e-10
-1.5992e-11
2.68061e-10
-1.4553e-11
2.71523e-10
-1.31459e-11
2.74596e-10
-1.17759e-11
2.77293e-10
-1.04483e-11
2.79626e-10
-9.16796e-12
2.8161e-10
-7.93854e-12
2.83261e-10
-6.76356e-12
2.84596e-10
-5.64652e-12
2.85632e-10
-4.5896e-12
2.86387e-10
-3.59463e-12
2.8688e-10
-2.6644e-12
2.87129e-10
-1.80064e-12
2.87155e-10
-1.00341e-12
2.86977e-10
-2.73549e-13
2.86614e-10
3.87942e-13
2.86088e-10
9.81013e-13
2.85417e-10
1.50611e-12
2.84622e-10
1.96357e-12
2.8372e-10
2.3541e-12
2.82732e-10
2.67919e-12
2.81677e-10
2.93976e-12
2.80573e-10
3.13678e-12
2.79437e-10
3.27273e-12
2.78287e-10
3.35021e-12
2.77141e-10
3.3705e-12
2.76013e-10
3.33537e-12
2.74919e-10
3.248e-12
2.73875e-10
3.11137e-12
2.72893e-10
2.92757e-12
2.71987e-10
2.69901e-12
2.71167e-10
2.42931e-12
2.70447e-10
2.12238e-12
2.69834e-10
1.78122e-12
2.6934e-10
1.40861e-12
2.68972e-10
1.00802e-12
2.68737e-10
5.82973e-13
2.68642e-10
1.36792e-13
2.6869e-10
-3.26594e-13
2.68886e-10
-8.03125e-13
2.69234e-10
-1.28942e-12
2.69735e-10
-1.78231e-12
2.7039e-10
-2.27819e-12
2.71198e-10
-2.77286e-12
2.72159e-10
-3.26235e-12
2.73268e-10
-3.74349e-12
2.74524e-10
-4.21295e-12
2.75921e-10
-4.66671e-12
2.77454e-10
-5.10071e-12
2.79116e-10
-5.51157e-12
2.809e-10
-5.8964e-12
2.82797e-10
-6.25192e-12
2.84797e-10
-6.57481e-12
2.8689e-10
-6.86192e-12
2.89063e-10
-7.10973e-12
2.91306e-10
-7.31529e-12
2.93606e-10
-7.47608e-12
2.95947e-10
-7.58954e-12
2.98315e-10
-7.65316e-12
3.00695e-10
-7.66412e-12
3.03071e-10
-7.61986e-12
3.05427e-10
-7.51889e-12
3.07743e-10
-7.35945e-12
3.10004e-10
-7.13927e-12
3.12191e-10
-6.8566e-12
3.14286e-10
-6.51003e-12
3.16269e-10
-6.09859e-12
3.18121e-10
-5.62176e-12
3.19821e-10
-5.07838e-12
3.21353e-10
-4.46764e-12
3.22695e-10
-3.78974e-12
3.23827e-10
-3.04468e-12
3.2473e-10
-2.23268e-12
3.25385e-10
-1.35431e-12
3.25772e-10
-4.0988e-13
3.25873e-10
5.99564e-13
3.25669e-10
1.67207e-12
3.25142e-10
2.80599e-12
3.24276e-10
3.99954e-12
3.23053e-10
5.2502e-12
3.21458e-10
6.55543e-12
3.19475e-10
7.91226e-12
3.17092e-10
9.31665e-12
3.14296e-10
1.07649e-11
3.11074e-10
1.22532e-11
3.07416e-10
1.37768e-11
3.03315e-10
1.53302e-11
2.98763e-10
1.69082e-11
2.93756e-10
1.85046e-11
2.88288e-10
2.0113e-11
2.82361e-10
2.17268e-11
2.75974e-10
2.33385e-11
2.69131e-10
2.49396e-11
2.61836e-10
2.65217e-11
2.54099e-10
2.8076e-11
2.4593e-10
2.95923e-11
2.37344e-10
3.10601e-11
2.28358e-10
3.24691e-11
2.18991e-10
3.38074e-11
2.09269e-10
3.50621e-11
1.99218e-10
3.62206e-11
1.88869e-10
3.72691e-11
1.78259e-10
3.81928e-11
1.67426e-10
3.89763e-11
1.56414e-10
3.9604e-11
1.45273e-10
4.00589e-11
1.34054e-10
4.0323e-11
1.22815e-10
4.03784e-11
1.11619e-10
4.02066e-11
1.00532e-10
3.97882e-11
8.96265e-11
3.91035e-11
7.8977e-11
3.81334e-11
6.86646e-11
3.68594e-11
5.87713e-11
3.52642e-11
4.9382e-11
3.33338e-11
4.05842e-11
3.10584e-11
3.24651e-11
2.8434e-11
2.51072e-11
2.54659e-11
1.85875e-11
2.21745e-11
1.29763e-11
1.86012e-11
8.33069e-12
1.4815e-11
4.69307e-12
1.09263e-11
2.08748e-12
7.10057e-12
5.2409e-13
3.58176e-12
7.68752e-13
6.74267e-13
-2.34957e-12
2.72062e-12
-6.25139e-12
5.99253e-12
-1.05741e-11
1.03858e-11
-1.53251e-11
1.58276e-11
-2.01519e-11
2.22437e-11
-2.48036e-11
2.95614e-11
-2.91282e-11
3.7696e-11
-3.30451e-11
4.65603e-11
-3.65126e-11
5.60593e-11
-3.95166e-11
6.61001e-11
-4.2056e-11
7.65888e-11
-4.41441e-11
8.74327e-11
-4.58009e-11
9.85456e-11
-4.70488e-11
1.09841e-10
-4.79142e-11
1.2124e-10
-4.84243e-11
1.3267e-10
-4.86054e-11
1.4406e-10
-4.84856e-11
1.55348e-10
-4.80924e-11
1.66476e-10
-4.745e-11
1.77392e-10
-4.65853e-11
1.88047e-10
-4.55223e-11
1.98402e-10
-4.42828e-11
2.08418e-10
-4.28898e-11
2.18065e-10
-4.13635e-11
2.27313e-10
-3.97227e-11
2.36141e-10
-3.79872e-11
2.44529e-10
-3.61734e-11
2.52462e-10
-3.42974e-11
2.59927e-10
-3.23755e-11
2.66919e-10
-3.04212e-11
2.73432e-10
-2.84474e-11
2.79462e-10
-2.64672e-11
2.85013e-10
-2.44919e-11
2.90087e-10
-2.25314e-11
2.94692e-10
-2.05958e-11
2.98833e-10
-1.86949e-11
3.02523e-10
-1.68359e-11
3.05774e-10
-1.50263e-11
3.08598e-10
-1.32732e-11
3.11012e-10
-1.15822e-11
3.13032e-10
-9.95886e-12
3.14677e-10
-8.40858e-12
3.15965e-10
-6.93487e-12
3.16916e-10
-5.5409e-12
3.17552e-10
-4.23032e-12
3.17893e-10
-3.00604e-12
3.17961e-10
-1.86919e-12
3.1778e-10
-8.21436e-13
3.17371e-10
1.35567e-13
3.16756e-10
1.00166e-12
3.1596e-10
1.77711e-12
3.15004e-10
2.46184e-12
3.13911e-10
3.05611e-12
3.12704e-10
3.5611e-12
3.11405e-10
3.97862e-12
3.10035e-10
4.31004e-12
3.08615e-10
4.55695e-12
3.07167e-10
4.72216e-12
3.05709e-10
4.8084e-12
3.04261e-10
4.81796e-12
3.02842e-10
4.75411e-12
3.0147e-10
4.6207e-12
3.0016e-10
4.42091e-12
2.98929e-10
4.15806e-12
2.97793e-10
3.83618e-12
2.96764e-10
3.45938e-12
2.95856e-10
3.03181e-12
2.95079e-10
2.5579e-12
2.94445e-10
2.04235e-12
2.93964e-10
1.48983e-12
2.93642e-10
9.04693e-13
2.93489e-10
2.91344e-13
2.93508e-10
-3.45149e-13
2.93705e-10
-9.99617e-13
2.94083e-10
-1.6675e-12
2.94645e-10
-2.344e-12
2.9539e-10
-3.02381e-12
2.9632e-10
-3.70195e-12
2.97432e-10
-4.37378e-12
2.98722e-10
-5.03455e-12
3.00188e-10
-5.67909e-12
3.01825e-10
-6.30241e-12
3.03624e-10
-6.90002e-12
3.05579e-10
-7.4673e-12
3.07681e-10
-7.99931e-12
3.09921e-10
-8.49146e-12
3.12286e-10
-8.93977e-12
3.14766e-10
-9.34056e-12
3.17345e-10
-9.68929e-12
3.20011e-10
-9.98135e-12
3.22748e-10
-1.02133e-11
3.25541e-10
-1.0382e-11
3.28372e-10
-1.0484e-11
3.31223e-10
-1.05156e-11
3.34076e-10
-1.04735e-11
3.36913e-10
-1.03552e-11
3.39712e-10
-1.01585e-11
3.42453e-10
-9.88078e-12
3.45116e-10
-9.51929e-12
3.47679e-10
-9.07253e-12
3.50121e-10
-8.53911e-12
3.52418e-10
-7.91799e-12
3.54548e-10
-7.20825e-12
3.5649e-10
-6.4087e-12
3.5822e-10
-5.51912e-12
3.59715e-10
-4.53988e-12
3.60953e-10
-3.47098e-12
3.61913e-10
-2.31317e-12
3.62571e-10
-1.06786e-12
3.62906e-10
2.63855e-13
3.62897e-10
1.68037e-12
3.62524e-10
3.17917e-12
3.61767e-10
4.75748e-12
3.60606e-10
6.41187e-12
3.59023e-10
8.13833e-12
3.57001e-10
9.93329e-12
3.54526e-10
1.17924e-11
3.51581e-10
1.37099e-11
3.48154e-10
1.56799e-11
3.44233e-10
1.76969e-11
3.39809e-10
1.97538e-11
3.34873e-10
2.18432e-11
3.2942e-10
2.39572e-11
3.23446e-10
2.60872e-11
3.16949e-10
2.82236e-11
3.0993e-10
3.0357e-11
3.02394e-10
3.24767e-11
2.94346e-10
3.45706e-11
2.85795e-10
3.66267e-11
2.76754e-10
3.86328e-11
2.67239e-10
4.0575e-11
2.5727e-10
4.24384e-11
2.46868e-10
4.42083e-11
2.36063e-10
4.58681e-11
2.24884e-10
4.74002e-11
2.13366e-10
4.87868e-11
2.0155e-10
5.00093e-11
1.89478e-10
5.10476e-11
1.77201e-10
5.18806e-11
1.64771e-10
5.24874e-11
1.52248e-10
5.28457e-11
1.39695e-10
5.29318e-11
1.27181e-10
5.27214e-11
1.14779e-10
5.21907e-11
1.02566e-10
5.13159e-11
9.06261e-11
5.00733e-11
7.9045e-11
4.84402e-11
6.79126e-11
4.63965e-11
5.73201e-11
4.39257e-11
4.73608e-11
4.10164e-11
3.81282e-11
3.76657e-11
2.97129e-11
3.38816e-11
2.22004e-11
2.96879e-11
1.56701e-11
2.51316e-11
1.01941e-11
2.02909e-11
5.83535e-12
1.52851e-11
2.64794e-12
1.02873e-11
6.8379e-13
5.54525e-12
1.45257e-12
7.98565e-13
-3.14902e-12
3.16032e-12
-8.61491e-12
6.92162e-12
-1.43351e-11
1.19377e-11
-2.0342e-11
1.81027e-11
-2.63164e-11
2.532e-11
-3.20183e-11
3.3493e-11
-3.73019e-11
4.25268e-11
-4.208e-11
5.23228e-11
-4.63105e-11
6.27822e-11
-4.99754e-11
7.38038e-11
-5.30765e-11
8.5286e-11
-5.56276e-11
9.71341e-11
-5.76492e-11
1.09254e-10
-5.91687e-11
1.21556e-10
-6.02165e-11
1.33957e-10
-6.08241e-11
1.46376e-10
-6.10242e-11
1.5874e-10
-6.08506e-11
1.70983e-10
-6.03339e-11
1.8304e-10
-5.95078e-11
1.94856e-10
-5.84023e-11
2.06381e-10
-5.70469e-11
2.17569e-10
-5.54707e-11
2.28379e-10
-5.37006e-11
2.38779e-10
-5.1762e-11
2.48735e-10
-4.96802e-11
2.58226e-10
-4.74776e-11
2.67228e-10
-4.51757e-11
2.75726e-10
-4.27958e-11
2.83707e-10
-4.0357e-11
2.91163e-10
-3.78768e-11
2.98088e-10
-3.53724e-11
3.0448e-10
-3.28602e-11
3.10342e-10
-3.03535e-11
3.15676e-10
-2.7866e-11
3.2049e-10
-2.54106e-11
3.24794e-10
-2.29985e-11
3.28599e-10
-2.064e-11
3.31917e-10
-1.83452e-11
3.34766e-10
-1.61222e-11
3.37162e-10
-1.39783e-11
3.39125e-10
-1.19214e-11
3.40673e-10
-9.95748e-12
3.41829e-10
-8.0909e-12
3.42616e-10
-6.32696e-12
3.43055e-10
-4.67032e-12
3.43171e-10
-3.12331e-12
3.4299e-10
-1.68797e-12
3.42536e-10
-3.67192e-13
3.41834e-10
8.37433e-13
3.4091e-10
1.92582e-12
3.39789e-10
2.8978e-12
3.38497e-10
3.75336e-12
3.3706e-10
4.49335e-12
3.35502e-10
5.11897e-12
3.33849e-10
5.63178e-12
3.32124e-10
6.03431e-12
3.30351e-10
6.32935e-12
3.28555e-10
6.51948e-12
3.26756e-10
6.60753e-12
3.24977e-10
6.59727e-12
3.23238e-10
6.49323e-12
3.21561e-10
6.29957e-12
3.19961e-10
6.02008e-12
3.18459e-10
5.65972e-12
3.17071e-10
5.22418e-12
3.15812e-10
4.71849e-12
3.14698e-10
4.14741e-12
3.13739e-10
3.51657e-12
3.12951e-10
2.83204e-12
3.12341e-10
2.09977e-12
3.1192e-10
1.32568e-12
3.11695e-10
5.15855e-13
3.11675e-10
-3.23574e-13
3.11862e-10
-1.18651e-12
3.12262e-10
-2.06689e-12
3.12876e-10
-2.9581e-12
3.13706e-10
-3.85332e-12
3.14751e-10
-4.74658e-12
3.16009e-10
-5.63209e-12
3.17477e-10
-6.50322e-12
3.1915e-10
-7.35313e-12
3.21024e-10
-8.17566e-12
3.2309e-10
-8.96536e-12
3.25339e-10
-9.71637e-12
3.27761e-10
-1.04222e-11
3.30347e-10