/*--------------------------------*- C++ -*----------------------------------*\
  =========                 |
  \\      /  F ield         | OpenFOAM: The Open Source CFD Toolbox
   \\    /   O peration     | Website:  https://openfoam.org
    \\  /    A nd           | Version:  7
     \\/     M anipulation  |
\*---------------------------------------------------------------------------*/
FoamFile
{
    version     2.0;
    format      ascii;
    class       volVectorField;
    location    "0.4375";
    object      U;
}
// * * * * * * * * * * * * * * * * * * * * * * * * * * * * * * * * * * * * * //

dimensions      [0 1 -1 0 0 0 0];

internalField   nonuniform List<vector> 
51200
(
(5.64869e-08 7.94849e-08 0)
(-5.15436e-08 1.11176e-07 0)
(-8.48026e-08 4.75114e-08 0)
(-1.34637e-07 1.83782e-08 0)
(-9.47229e-08 -5.41515e-09 0)
(-1.90786e-08 -2.19824e-08 0)
(8.69777e-08 -3.38632e-08 0)
(2.17839e-07 -4.21423e-08 0)
(3.68753e-07 -4.88388e-08 0)
(5.3597e-07 -5.35491e-08 0)
(7.16523e-07 -5.7095e-08 0)
(9.07316e-07 -5.99808e-08 0)
(1.10669e-06 -6.19785e-08 0)
(1.31208e-06 -6.36454e-08 0)
(1.52146e-06 -6.45796e-08 0)
(1.73353e-06 -6.47735e-08 0)
(1.94648e-06 -6.46972e-08 0)
(2.15918e-06 -6.43978e-08 0)
(2.37052e-06 -6.36498e-08 0)
(2.57918e-06 -6.25629e-08 0)
(2.78422e-06 -6.1329e-08 0)
(2.98504e-06 -5.96988e-08 0)
(3.18076e-06 -5.81065e-08 0)
(3.37062e-06 -5.66133e-08 0)
(3.55451e-06 -5.47655e-08 0)
(3.73169e-06 -5.26963e-08 0)
(3.9015e-06 -5.05782e-08 0)
(4.06404e-06 -4.82839e-08 0)
(4.21901e-06 -4.5863e-08 0)
(4.36596e-06 -4.3456e-08 0)
(4.50495e-06 -4.10445e-08 0)
(4.63597e-06 -3.85749e-08 0)
(4.75883e-06 -3.60726e-08 0)
(4.87359e-06 -3.37004e-08 0)
(4.98036e-06 -3.15058e-08 0)
(5.07922e-06 -2.92531e-08 0)
(5.17031e-06 -2.69198e-08 0)
(5.25375e-06 -2.47202e-08 0)
(5.32976e-06 -2.25789e-08 0)
(5.39871e-06 -2.03833e-08 0)
(5.46074e-06 -1.82938e-08 0)
(5.51593e-06 -1.63681e-08 0)
(5.56473e-06 -1.45324e-08 0)
(5.60751e-06 -1.27773e-08 0)
(5.64444e-06 -1.11329e-08 0)
(5.67588e-06 -9.61011e-09 0)
(5.70218e-06 -8.16905e-09 0)
(5.7236e-06 -6.76824e-09 0)
(5.7405e-06 -5.41178e-09 0)
(5.75322e-06 -4.22978e-09 0)
(5.7621e-06 -3.23995e-09 0)
(5.76755e-06 -2.32754e-09 0)
(5.76994e-06 -1.41997e-09 0)
(5.76955e-06 -5.59883e-10 0)
(5.76667e-06 1.73517e-10 0)
(5.7617e-06 7.90783e-10 0)
(5.75506e-06 1.32566e-09 0)
(5.74702e-06 1.70619e-09 0)
(5.73777e-06 1.90382e-09 0)
(5.72763e-06 2.05571e-09 0)
(5.717e-06 2.23905e-09 0)
(5.70613e-06 2.36861e-09 0)
(5.6952e-06 2.39755e-09 0)
(5.68448e-06 2.34695e-09 0)
(5.67427e-06 2.21413e-09 0)
(5.66477e-06 2.04059e-09 0)
(5.65623e-06 1.88083e-09 0)
(5.64888e-06 1.66885e-09 0)
(5.64283e-06 1.29473e-09 0)
(5.63822e-06 7.52774e-10 0)
(5.63529e-06 1.46064e-10 0)
(5.6341e-06 -4.0912e-10 0)
(5.63461e-06 -8.79243e-10 0)
(5.63698e-06 -1.29533e-09 0)
(5.64145e-06 -1.69983e-09 0)
(5.6481e-06 -2.17203e-09 0)
(5.65689e-06 -2.7764e-09 0)
(5.66777e-06 -3.47093e-09 0)
(5.68076e-06 -4.15258e-09 0)
(5.69589e-06 -4.75222e-09 0)
(5.71314e-06 -5.25e-09 0)
(5.73246e-06 -5.67015e-09 0)
(5.7538e-06 -6.10147e-09 0)
(5.77701e-06 -6.61944e-09 0)
(5.80193e-06 -7.18843e-09 0)
(5.8285e-06 -7.70481e-09 0)
(5.85665e-06 -8.0766e-09 0)
(5.88613e-06 -8.30951e-09 0)
(5.91671e-06 -8.50384e-09 0)
(5.94825e-06 -8.69828e-09 0)
(5.98071e-06 -8.85783e-09 0)
(6.01389e-06 -8.97027e-09 0)
(6.0474e-06 -9.02871e-09 0)
(6.08093e-06 -9.01993e-09 0)
(6.11431e-06 -8.92676e-09 0)
(6.14738e-06 -8.74569e-09 0)
(6.17985e-06 -8.48097e-09 0)
(6.21134e-06 -8.10044e-09 0)
(6.24153e-06 -7.60573e-09 0)
(6.2702e-06 -7.04336e-09 0)
(6.29698e-06 -6.43241e-09 0)
(6.32158e-06 -5.77445e-09 0)
(6.34369e-06 -5.0198e-09 0)
(6.36293e-06 -4.10222e-09 0)
(6.37899e-06 -3.05978e-09 0)
(6.39153e-06 -1.96444e-09 0)
(6.40022e-06 -8.19936e-10 0)
(6.40477e-06 4.05163e-10 0)
(6.40481e-06 1.76469e-09 0)
(6.39997e-06 3.27931e-09 0)
(6.38999e-06 4.88871e-09 0)
(6.37451e-06 6.56842e-09 0)
(6.3532e-06 8.32118e-09 0)
(6.32576e-06 1.01168e-08 0)
(6.29184e-06 1.19841e-08 0)
(6.25119e-06 1.39729e-08 0)
(6.20362e-06 1.60746e-08 0)
(6.14882e-06 1.82714e-08 0)
(6.08651e-06 2.05164e-08 0)
(6.01647e-06 2.27549e-08 0)
(5.93848e-06 2.50219e-08 0)
(5.85246e-06 2.73776e-08 0)
(5.75834e-06 2.98217e-08 0)
(5.65585e-06 3.23439e-08 0)
(5.54485e-06 3.49007e-08 0)
(5.42538e-06 3.73925e-08 0)
(5.29745e-06 3.98128e-08 0)
(5.16099e-06 4.22488e-08 0)
(5.01605e-06 4.47162e-08 0)
(4.86269e-06 4.71772e-08 0)
(4.70115e-06 4.96039e-08 0)
(4.53174e-06 5.19465e-08 0)
(4.35465e-06 5.41619e-08 0)
(4.17013e-06 5.62467e-08 0)
(3.97865e-06 5.82187e-08 0)
(3.78063e-06 6.01218e-08 0)
(3.57648e-06 6.19617e-08 0)
(3.36684e-06 6.36094e-08 0)
(3.15248e-06 6.49183e-08 0)
(2.93409e-06 6.59208e-08 0)
(2.71256e-06 6.67128e-08 0)
(2.48895e-06 6.72562e-08 0)
(2.2643e-06 6.74829e-08 0)
(2.03974e-06 6.73608e-08 0)
(1.81671e-06 6.67944e-08 0)
(1.5967e-06 6.56897e-08 0)
(1.38126e-06 6.40341e-08 0)
(1.17221e-06 6.1805e-08 0)
(9.71574e-07 5.89339e-08 0)
(7.81442e-07 5.53686e-08 0)
(6.04232e-07 5.10239e-08 0)
(4.42639e-07 4.57456e-08 0)
(2.99325e-07 3.94316e-08 0)
(1.77019e-07 3.20421e-08 0)
(7.87204e-08 2.3509e-08 0)
(7.30771e-09 1.38018e-08 0)
(-3.50245e-08 3.21685e-09 0)
(-4.77068e-08 -7.2072e-09 0)
(-3.5109e-08 -1.47002e-08 0)
(-1.18263e-08 -1.21396e-08 0)
(8.5439e-08 1.244e-08 0)
(9.10068e-08 1.38574e-07 0)
(6.21196e-08 5.12146e-08 0)
(1.03693e-07 -2.66469e-08 0)
(2.33164e-07 -1.04437e-07 0)
(4.40941e-07 -1.71108e-07 0)
(7.20577e-07 -2.25685e-07 0)
(1.06264e-06 -2.70869e-07 0)
(1.45846e-06 -3.07586e-07 0)
(1.90027e-06 -3.37553e-07 0)
(2.37921e-06 -3.61756e-07 0)
(2.88946e-06 -3.80506e-07 0)
(3.42382e-06 -3.95135e-07 0)
(3.97681e-06 -4.06061e-07 0)
(4.54361e-06 -4.13128e-07 0)
(5.1186e-06 -4.17026e-07 0)
(5.69798e-06 -4.18005e-07 0)
(6.27798e-06 -4.16425e-07 0)
(6.85474e-06 -4.12705e-07 0)
(7.42546e-06 -4.06943e-07 0)
(7.98743e-06 -3.9928e-07 0)
(8.53782e-06 -3.89934e-07 0)
(9.07467e-06 -3.79461e-07 0)
(9.59645e-06 -3.67827e-07 0)
(1.01012e-05 -3.55094e-07 0)
(1.05876e-05 -3.41702e-07 0)
(1.10545e-05 -3.27512e-07 0)
(1.1501e-05 -3.12588e-07 0)
(1.19263e-05 -2.9731e-07 0)
(1.23298e-05 -2.8173e-07 0)
(1.27111e-05 -2.65891e-07 0)
(1.307e-05 -2.4992e-07 0)
(1.34064e-05 -2.33891e-07 0)
(1.37202e-05 -2.18026e-07 0)
(1.40117e-05 -2.0242e-07 0)
(1.42812e-05 -1.86933e-07 0)
(1.45288e-05 -1.71722e-07 0)
(1.4755e-05 -1.56976e-07 0)
(1.49604e-05 -1.42512e-07 0)
(1.51457e-05 -1.2839e-07 0)
(1.53115e-05 -1.1493e-07 0)
(1.54584e-05 -1.02042e-07 0)
(1.55873e-05 -8.96169e-08 0)
(1.56989e-05 -7.77945e-08 0)
(1.57942e-05 -6.65949e-08 0)
(1.58741e-05 -5.60689e-08 0)
(1.59394e-05 -4.62127e-08 0)
(1.59913e-05 -3.69589e-08 0)
(1.60306e-05 -2.83258e-08 0)
(1.60582e-05 -2.04689e-08 0)
(1.60751e-05 -1.33628e-08 0)
(1.60824e-05 -6.89516e-09 0)
(1.60811e-05 -1.06144e-09 0)
(1.60722e-05 4.06347e-09 0)
(1.60564e-05 8.493e-09 0)
(1.60349e-05 1.23636e-08 0)
(1.60087e-05 1.56704e-08 0)
(1.59786e-05 1.82144e-08 0)
(1.59455e-05 1.99893e-08 0)
(1.59103e-05 2.12447e-08 0)
(1.58737e-05 2.20656e-08 0)
(1.58367e-05 2.2339e-08 0)
(1.58e-05 2.20715e-08 0)
(1.57644e-05 2.13216e-08 0)
(1.57303e-05 2.0073e-08 0)
(1.56985e-05 1.84097e-08 0)
(1.56698e-05 1.64488e-08 0)
(1.56446e-05 1.4114e-08 0)
(1.56233e-05 1.1345e-08 0)
(1.56066e-05 8.23572e-09 0)
(1.5595e-05 4.81869e-09 0)
(1.55888e-05 1.08281e-09 0)
(1.5588e-05 -2.85374e-09 0)
(1.5593e-05 -6.82606e-09 0)
(1.5604e-05 -1.07838e-08 0)
(1.56214e-05 -1.48184e-08 0)
(1.56452e-05 -1.90378e-08 0)
(1.56756e-05 -2.34293e-08 0)
(1.57124e-05 -2.78631e-08 0)
(1.57557e-05 -3.22008e-08 0)
(1.58051e-05 -3.63543e-08 0)
(1.58608e-05 -4.02801e-08 0)
(1.59225e-05 -4.40378e-08 0)
(1.599e-05 -4.77189e-08 0)
(1.60628e-05 -5.12494e-08 0)
(1.61408e-05 -5.44926e-08 0)
(1.62235e-05 -5.74045e-08 0)
(1.63104e-05 -5.99882e-08 0)
(1.6401e-05 -6.22333e-08 0)
(1.64947e-05 -6.40539e-08 0)
(1.6591e-05 -6.53882e-08 0)
(1.66894e-05 -6.63165e-08 0)
(1.67892e-05 -6.68745e-08 0)
(1.68897e-05 -6.69742e-08 0)
(1.69902e-05 -6.65111e-08 0)
(1.70897e-05 -6.54616e-08 0)
(1.71876e-05 -6.38798e-08 0)
(1.7283e-05 -6.17244e-08 0)
(1.73752e-05 -5.89248e-08 0)
(1.74632e-05 -5.55164e-08 0)
(1.75459e-05 -5.15133e-08 0)
(1.76227e-05 -4.69007e-08 0)
(1.76926e-05 -4.16576e-08 0)
(1.77546e-05 -3.5717e-08 0)
(1.78076e-05 -2.90868e-08 0)
(1.78508e-05 -2.18343e-08 0)
(1.78831e-05 -1.39425e-08 0)
(1.79038e-05 -5.37862e-09 0)
(1.79118e-05 3.87901e-09 0)
(1.7906e-05 1.38653e-08 0)
(1.78856e-05 2.4515e-08 0)
(1.78496e-05 3.57605e-08 0)
(1.77972e-05 4.76022e-08 0)
(1.77275e-05 5.99824e-08 0)
(1.76396e-05 7.29016e-08 0)
(1.75326e-05 8.64389e-08 0)
(1.74059e-05 1.00557e-07 0)
(1.72586e-05 1.15164e-07 0)
(1.70901e-05 1.30195e-07 0)
(1.68999e-05 1.45586e-07 0)
(1.66874e-05 1.61346e-07 0)
(1.6452e-05 1.77501e-07 0)
(1.61934e-05 1.93938e-07 0)
(1.59112e-05 2.10544e-07 0)
(1.56052e-05 2.27327e-07 0)
(1.52752e-05 2.44203e-07 0)
(1.49211e-05 2.61007e-07 0)
(1.45431e-05 2.77686e-07 0)
(1.41414e-05 2.94214e-07 0)
(1.37162e-05 3.10514e-07 0)
(1.32681e-05 3.26508e-07 0)
(1.27975e-05 3.42052e-07 0)
(1.23054e-05 3.56975e-07 0)
(1.17927e-05 3.71164e-07 0)
(1.12604e-05 3.84515e-07 0)
(1.071e-05 3.96913e-07 0)
(1.01427e-05 4.08266e-07 0)
(9.56029e-06 4.18406e-07 0)
(8.96489e-06 4.27041e-07 0)
(8.35871e-06 4.33954e-07 0)
(7.74417e-06 4.3906e-07 0)
(7.12411e-06 4.42163e-07 0)
(6.5016e-06 4.42965e-07 0)
(5.87992e-06 4.41239e-07 0)
(5.2628e-06 4.36741e-07 0)
(4.65443e-06 4.29145e-07 0)
(4.05925e-06 4.18123e-07 0)
(3.48214e-06 4.0338e-07 0)
(2.92842e-06 3.84601e-07 0)
(2.40374e-06 3.61459e-07 0)
(1.9141e-06 3.33623e-07 0)
(1.46594e-06 3.00698e-07 0)
(1.0659e-06 2.62346e-07 0)
(7.20524e-07 2.185e-07 0)
(4.36038e-07 1.6946e-07 0)
(2.17719e-07 1.16151e-07 0)
(6.87717e-08 6.07682e-08 0)
(-1.14462e-08 8.03286e-09 0)
(-3.17624e-08 -3.17873e-08 0)
(-1.43033e-08 -3.55523e-08 0)
(3.76404e-08 -5.97121e-09 0)
(8.65703e-08 4.79856e-08 0)
(1.97001e-07 -3.22047e-08 0)
(3.67456e-07 -1.79074e-07 0)
(6.30557e-07 -3.40559e-07 0)
(9.92577e-07 -4.92823e-07 0)
(1.44837e-06 -6.28225e-07 0)
(1.99097e-06 -7.45223e-07 0)
(2.61114e-06 -8.44311e-07 0)
(3.29775e-06 -9.27646e-07 0)
(4.04186e-06 -9.95788e-07 0)
(4.83241e-06 -1.05057e-06 0)
(5.66048e-06 -1.09336e-06 0)
(6.51825e-06 -1.12474e-06 0)
(7.39696e-06 -1.1466e-06 0)
(8.28958e-06 -1.15925e-06 0)
(9.18966e-06 -1.16357e-06 0)
(1.00907e-05 -1.16087e-06 0)
(1.09876e-05 -1.15144e-06 0)
(1.18755e-05 -1.13618e-06 0)
(1.27498e-05 -1.11578e-06 0)
(1.36066e-05 -1.09085e-06 0)
(1.44426e-05 -1.06178e-06 0)
(1.52548e-05 -1.02923e-06 0)
(1.60405e-05 -9.93838e-07 0)
(1.67976e-05 -9.55842e-07 0)
(1.75241e-05 -9.15783e-07 0)
(1.82185e-05 -8.74089e-07 0)
(1.88797e-05 -8.31034e-07 0)
(1.95066e-05 -7.87019e-07 0)
(2.00985e-05 -7.42422e-07 0)
(2.06551e-05 -6.97347e-07 0)
(2.11761e-05 -6.52124e-07 0)
(2.16614e-05 -6.07171e-07 0)
(2.21115e-05 -5.62557e-07 0)
(2.25266e-05 -5.18511e-07 0)
(2.29071e-05 -4.75425e-07 0)
(2.32539e-05 -4.33345e-07 0)
(2.35678e-05 -3.92274e-07 0)
(2.38497e-05 -3.52479e-07 0)
(2.41005e-05 -3.14131e-07 0)
(2.43216e-05 -2.77289e-07 0)
(2.45141e-05 -2.42055e-07 0)
(2.46793e-05 -2.08505e-07 0)
(2.48187e-05 -1.76685e-07 0)
(2.49336e-05 -1.46712e-07 0)
(2.50255e-05 -1.18628e-07 0)
(2.50961e-05 -9.2358e-08 0)
(2.51469e-05 -6.80326e-08 0)
(2.51792e-05 -4.57828e-08 0)
(2.51948e-05 -2.55204e-08 0)
(2.51954e-05 -7.14267e-09 0)
(2.51824e-05 9.26888e-09 0)
(2.51574e-05 2.35908e-08 0)
(2.5122e-05 3.59396e-08 0)
(2.50778e-05 4.65166e-08 0)
(2.50262e-05 5.53229e-08 0)
(2.49687e-05 6.2282e-08 0)
(2.49067e-05 6.74191e-08 0)
(2.48417e-05 7.08351e-08 0)
(2.4775e-05 7.26592e-08 0)
(2.47079e-05 7.29897e-08 0)
(2.46417e-05 7.18368e-08 0)
(2.45774e-05 6.91677e-08 0)
(2.45163e-05 6.50778e-08 0)
(2.44596e-05 5.97768e-08 0)
(2.4408e-05 5.33573e-08 0)
(2.43624e-05 4.57985e-08 0)
(2.43235e-05 3.72658e-08 0)
(2.42924e-05 2.80116e-08 0)
(2.42697e-05 1.80173e-08 0)
(2.4256e-05 7.15856e-09 0)
(2.42518e-05 -4.44576e-09 0)
(2.42575e-05 -1.65427e-08 0)
(2.42735e-05 -2.89523e-08 0)
(2.42999e-05 -4.15564e-08 0)
(2.43371e-05 -5.42682e-08 0)
(2.43851e-05 -6.70679e-08 0)
(2.4444e-05 -7.99598e-08 0)
(2.45137e-05 -9.28265e-08 0)
(2.45941e-05 -1.05418e-07 0)
(2.46849e-05 -1.17529e-07 0)
(2.47856e-05 -1.29123e-07 0)
(2.4896e-05 -1.40228e-07 0)
(2.50155e-05 -1.50712e-07 0)
(2.51438e-05 -1.60372e-07 0)
(2.528e-05 -1.69168e-07 0)
(2.54235e-05 -1.77108e-07 0)
(2.55734e-05 -1.84104e-07 0)
(2.57289e-05 -1.89996e-07 0)
(2.58891e-05 -1.94597e-07 0)
(2.60528e-05 -1.97846e-07 0)
(2.62192e-05 -1.99744e-07 0)
(2.63871e-05 -2.00233e-07 0)
(2.65553e-05 -1.99265e-07 0)
(2.67224e-05 -1.96742e-07 0)
(2.68873e-05 -1.92567e-07 0)
(2.70487e-05 -1.86718e-07 0)
(2.72051e-05 -1.79156e-07 0)
(2.73551e-05 -1.69851e-07 0)
(2.74971e-05 -1.58745e-07 0)
(2.76298e-05 -1.45732e-07 0)
(2.77518e-05 -1.30814e-07 0)
(2.78614e-05 -1.14027e-07 0)
(2.7957e-05 -9.53228e-08 0)
(2.8037e-05 -7.46828e-08 0)
(2.80999e-05 -5.21036e-08 0)
(2.81443e-05 -2.7573e-08 0)
(2.81686e-05 -1.1577e-09 0)
(2.81712e-05 2.71368e-08 0)
(2.81505e-05 5.73639e-08 0)
(2.81051e-05 8.94504e-08 0)
(2.80334e-05 1.23307e-07 0)
(2.79342e-05 1.58852e-07 0)
(2.78062e-05 1.95965e-07 0)
(2.76479e-05 2.34641e-07 0)
(2.74582e-05 2.7489e-07 0)
(2.72357e-05 3.16581e-07 0)
(2.69794e-05 3.59579e-07 0)
(2.66885e-05 4.03774e-07 0)
(2.63621e-05 4.48998e-07 0)
(2.59994e-05 4.95117e-07 0)
(2.55997e-05 5.42019e-07 0)
(2.51624e-05 5.89465e-07 0)
(2.46873e-05 6.37246e-07 0)
(2.4174e-05 6.85249e-07 0)
(2.36226e-05 7.33234e-07 0)
(2.30331e-05 7.80921e-07 0)
(2.2406e-05 8.28117e-07 0)
(2.17418e-05 8.74556e-07 0)
(2.10412e-05 9.19925e-07 0)
(2.03052e-05 9.63964e-07 0)
(1.95349e-05 1.00635e-06 0)
(1.87321e-05 1.04664e-06 0)
(1.78985e-05 1.08447e-06 0)
(1.70362e-05 1.11949e-06 0)
(1.61475e-05 1.15128e-06 0)
(1.52353e-05 1.17943e-06 0)
(1.43027e-05 1.20346e-06 0)
(1.33532e-05 1.22279e-06 0)
(1.23909e-05 1.23684e-06 0)
(1.14202e-05 1.24504e-06 0)
(1.04457e-05 1.24673e-06 0)
(9.47288e-06 1.24121e-06 0)
(8.50753e-06 1.22785e-06 0)
(7.55594e-06 1.20596e-06 0)
(6.62496e-06 1.17475e-06 0)
(5.72211e-06 1.13335e-06 0)
(4.85538e-06 1.08095e-06 0)
(4.03315e-06 1.01676e-06 0)
(3.26425e-06 9.40049e-07 0)
(2.55788e-06 8.50217e-07 0)
(1.92324e-06 7.46974e-07 0)
(1.36935e-06 6.30561e-07 0)
(9.0448e-07 5.02214e-07 0)
(5.35059e-07 3.6501e-07 0)
(2.64357e-07 2.25013e-07 0)
(9.10612e-08 9.30498e-08 0)
(6.83864e-09 -1.13373e-08 0)
(-7.26507e-09 -4.83545e-08 0)
(2.89702e-08 -9.15542e-08 0)
(1.13989e-07 -9.25365e-08 0)
(3.13852e-07 -2.3386e-07 0)
(6.08004e-07 -4.68915e-07 0)
(1.01222e-06 -7.31257e-07 0)
(1.53121e-06 -9.87858e-07 0)
(2.16231e-06 -1.22363e-06 0)
(2.89762e-06 -1.43225e-06 0)
(3.72633e-06 -1.61355e-06 0)
(4.63827e-06 -1.76703e-06 0)
(5.62087e-06 -1.89504e-06 0)
(6.66265e-06 -1.9992e-06 0)
(7.75249e-06 -2.08045e-06 0)
(8.87931e-06 -2.14149e-06 0)
(1.00336e-05 -2.18374e-06 0)
(1.1206e-05 -2.20867e-06 0)
(1.23875e-05 -2.21832e-06 0)
(1.35707e-05 -2.21382e-06 0)
(1.47485e-05 -2.19655e-06 0)
(1.59141e-05 -2.16812e-06 0)
(1.7062e-05 -2.12973e-06 0)
(1.81869e-05 -2.08236e-06 0)
(1.92844e-05 -2.02716e-06 0)
(2.03503e-05 -1.96526e-06 0)
(2.13812e-05 -1.89746e-06 0)
(2.23741e-05 -1.8247e-06 0)
(2.33265e-05 -1.7479e-06 0)
(2.42363e-05 -1.66765e-06 0)
(2.51018e-05 -1.58477e-06 0)
(2.59217e-05 -1.50006e-06 0)
(2.66952e-05 -1.41395e-06 0)
(2.74216e-05 -1.32708e-06 0)
(2.81005e-05 -1.2401e-06 0)
(2.87319e-05 -1.15333e-06 0)
(2.93163e-05 -1.06712e-06 0)
(2.98538e-05 -9.82152e-07 0)
(3.03452e-05 -8.9877e-07 0)
(3.07917e-05 -8.17185e-07 0)
(3.11942e-05 -7.37797e-07 0)
(3.15539e-05 -6.60888e-07 0)
(3.18723e-05 -5.86678e-07 0)
(3.21508e-05 -5.15392e-07 0)
(3.23912e-05 -4.47207e-07 0)
(3.25953e-05 -3.82294e-07 0)
(3.27649e-05 -3.20869e-07 0)
(3.29018e-05 -2.63003e-07 0)
(3.30083e-05 -2.08735e-07 0)
(3.30864e-05 -1.58151e-07 0)
(3.31379e-05 -1.1144e-07 0)
(3.31651e-05 -6.86179e-08 0)
(3.31703e-05 -2.9576e-08 0)
(3.31555e-05 5.67495e-09 0)
(3.31228e-05 3.70413e-08 0)
(3.30743e-05 6.4529e-08 0)
(3.30123e-05 8.82573e-08 0)
(3.2939e-05 1.08269e-07 0)
(3.28561e-05 1.24606e-07 0)
(3.27656e-05 1.37455e-07 0)
(3.26697e-05 1.46902e-07 0)
(3.25702e-05 1.52947e-07 0)
(3.2469e-05 1.55799e-07 0)
(3.23678e-05 1.55679e-07 0)
(3.22682e-05 1.52609e-07 0)
(3.21719e-05 1.467e-07 0)
(3.20804e-05 1.38219e-07 0)
(3.19953e-05 1.27306e-07 0)
(3.19178e-05 1.13979e-07 0)
(3.1849e-05 9.83935e-08 0)
(3.17902e-05 8.08822e-08 0)
(3.17425e-05 6.17594e-08 0)
(3.17066e-05 4.11779e-08 0)
(3.16833e-05 1.92286e-08 0)
(3.16736e-05 -3.92198e-09 0)
(3.16779e-05 -2.80954e-08 0)
(3.16969e-05 -5.31067e-08 0)
(3.17308e-05 -7.86778e-08 0)
(3.17798e-05 -1.04526e-07 0)
(3.18441e-05 -1.30468e-07 0)
(3.19236e-05 -1.56364e-07 0)
(3.20183e-05 -1.82027e-07 0)
(3.21282e-05 -2.07226e-07 0)
(3.22529e-05 -2.31761e-07 0)
(3.23916e-05 -2.55431e-07 0)
(3.25441e-05 -2.78007e-07 0)
(3.27096e-05 -2.99255e-07 0)
(3.28875e-05 -3.18975e-07 0)
(3.30768e-05 -3.37045e-07 0)
(3.32764e-05 -3.53311e-07 0)
(3.34854e-05 -3.67552e-07 0)
(3.37027e-05 -3.79649e-07 0)
(3.39268e-05 -3.89451e-07 0)
(3.41565e-05 -3.96708e-07 0)
(3.43902e-05 -4.0124e-07 0)
(3.46265e-05 -4.02932e-07 0)
(3.48637e-05 -4.01716e-07 0)
(3.51002e-05 -3.9748e-07 0)
(3.53341e-05 -3.90011e-07 0)
(3.55637e-05 -3.79212e-07 0)
(3.57871e-05 -3.65075e-07 0)
(3.60023e-05 -3.47513e-07 0)
(3.62073e-05 -3.26397e-07 0)
(3.64003e-05 -3.01579e-07 0)
(3.65791e-05 -2.72996e-07 0)
(3.67415e-05 -2.4073e-07 0)
(3.68855e-05 -2.04767e-07 0)
(3.7009e-05 -1.64995e-07 0)
(3.71098e-05 -1.21398e-07 0)
(3.71859e-05 -7.39845e-08 0)
(3.7235e-05 -2.28068e-08 0)
(3.72553e-05 3.20206e-08 0)
(3.72446e-05 9.04807e-08 0)
(3.72008e-05 1.52529e-07 0)
(3.7122e-05 2.18036e-07 0)
(3.70063e-05 2.86941e-07 0)
(3.68519e-05 3.59121e-07 0)
(3.6657e-05 4.34342e-07 0)
(3.642e-05 5.12435e-07 0)
(3.61392e-05 5.93262e-07 0)
(3.58132e-05 6.7663e-07 0)
(3.54407e-05 7.62352e-07 0)
(3.50206e-05 8.50159e-07 0)
(3.45517e-05 9.39662e-07 0)
(3.40333e-05 1.03055e-06 0)
(3.34646e-05 1.12254e-06 0)
(3.28451e-05 1.21521e-06 0)
(3.21747e-05 1.30818e-06 0)
(3.14532e-05 1.4011e-06 0)
(3.06808e-05 1.49351e-06 0)
(2.9858e-05 1.58491e-06 0)
(2.89856e-05 1.67479e-06 0)
(2.80646e-05 1.76255e-06 0)
(2.70963e-05 1.84754e-06 0)
(2.60825e-05 1.92923e-06 0)
(2.5025e-05 2.00696e-06 0)
(2.39266e-05 2.07996e-06 0)
(2.27901e-05 2.14739e-06 0)
(2.16185e-05 2.20847e-06 0)
(2.04157e-05 2.26237e-06 0)
(1.91859e-05 2.30819e-06 0)
(1.79338e-05 2.34494e-06 0)
(1.66647e-05 2.37155e-06 0)
(1.53843e-05 2.38686e-06 0)
(1.40991e-05 2.38968e-06 0)
(1.2816e-05 2.37883e-06 0)
(1.15426e-05 2.353e-06 0)
(1.02873e-05 2.31087e-06 0)
(9.05869e-06 2.25114e-06 0)
(7.86632e-06 2.17243e-06 0)
(6.7204e-06 2.0733e-06 0)
(5.63145e-06 1.95243e-06 0)
(4.61037e-06 1.80876e-06 0)
(3.66837e-06 1.64157e-06 0)
(2.81661e-06 1.45077e-06 0)
(2.06564e-06 1.23737e-06 0)
(1.42508e-06 1.00403e-06 0)
(9.02501e-07 7.56323e-07 0)
(5.01845e-07 5.04496e-07 0)
(2.22205e-07 2.65706e-07 0)
(5.88981e-08 6.79801e-08 0)
(2.80125e-09 -3.6437e-08 0)
(2.57514e-08 -1.46399e-07 0)
(1.44885e-07 -2.80606e-07 0)
(4.27042e-07 -5.34487e-07 0)
(8.38234e-07 -8.85944e-07 0)
(1.37878e-06 -1.26988e-06 0)
(2.05092e-06 -1.64685e-06 0)
(2.84973e-06 -1.99704e-06 0)
(3.76584e-06 -2.31258e-06 0)
(4.78891e-06 -2.58829e-06 0)
(5.90588e-06 -2.8251e-06 0)
(7.10401e-06 -3.02379e-06 0)
(8.3708e-06 -3.18595e-06 0)
(9.6928e-06 -3.31419e-06 0)
(1.1058e-05 -3.41048e-06 0)
(1.24551e-05 -3.47727e-06 0)
(1.38727e-05 -3.51735e-06 0)
(1.5301e-05 -3.53288e-06 0)
(1.67308e-05 -3.52597e-06 0)
(1.81534e-05 -3.49899e-06 0)
(1.9561e-05 -3.45387e-06 0)
(2.09467e-05 -3.39265e-06 0)
(2.23045e-05 -3.31709e-06 0)
(2.36285e-05 -3.22896e-06 0)
(2.4914e-05 -3.12996e-06 0)
(2.61566e-05 -3.02139e-06 0)
(2.73527e-05 -2.90486e-06 0)
(2.84993e-05 -2.78161e-06 0)
(2.95937e-05 -2.65282e-06 0)
(3.06337e-05 -2.5198e-06 0)
(3.1618e-05 -2.3835e-06 0)
(3.25453e-05 -2.2449e-06 0)
(3.34146e-05 -2.10515e-06 0)
(3.42259e-05 -1.96505e-06 0)
(3.4979e-05 -1.82523e-06 0)
(3.56741e-05 -1.68659e-06 0)
(3.63118e-05 -1.54983e-06 0)
(3.6893e-05 -1.41538e-06 0)
(3.74188e-05 -1.28387e-06 0)
(3.78907e-05 -1.15593e-06 0)
(3.831e-05 -1.03194e-06 0)
(3.86785e-05 -9.12307e-07 0)
(3.89982e-05 -7.97395e-07 0)
(3.92711e-05 -6.87491e-07 0)
(3.94995e-05 -5.82948e-07 0)
(3.96855e-05 -4.84034e-07 0)
(3.98316e-05 -3.90834e-07 0)
(3.99405e-05 -3.03479e-07 0)
(4.00145e-05 -2.22261e-07 0)
(4.00562e-05 -1.47299e-07 0)
(4.00684e-05 -7.85231e-08 0)
(4.00538e-05 -1.597e-08 0)
(4.00149e-05 4.02319e-08 0)
(3.99543e-05 9.01419e-08 0)
(3.98749e-05 1.33932e-07 0)
(3.97792e-05 1.71648e-07 0)
(3.967e-05 2.03254e-07 0)
(3.95496e-05 2.28852e-07 0)
(3.94206e-05 2.48691e-07 0)
(3.92854e-05 2.6297e-07 0)
(3.91464e-05 2.71823e-07 0)
(3.90061e-05 2.75446e-07 0)
(3.88664e-05 2.74028e-07 0)
(3.87295e-05 2.67748e-07 0)
(3.85975e-05 2.56942e-07 0)
(3.84724e-05 2.41954e-07 0)
(3.83557e-05 2.22949e-07 0)
(3.82491e-05 2.0012e-07 0)
(3.81543e-05 1.73809e-07 0)
(3.80728e-05 1.44322e-07 0)
(3.80058e-05 1.11919e-07 0)
(3.79545e-05 7.69429e-08 0)
(3.79197e-05 3.97878e-08 0)
(3.79025e-05 8.10533e-10 0)
(3.79036e-05 -3.97079e-08 0)
(3.79236e-05 -8.15138e-08 0)
(3.79632e-05 -1.24277e-07 0)
(3.80224e-05 -1.67653e-07 0)
(3.81015e-05 -2.11305e-07 0)
(3.82004e-05 -2.54828e-07 0)
(3.83191e-05 -2.97817e-07 0)
(3.84574e-05 -3.39985e-07 0)
(3.86148e-05 -3.81119e-07 0)
(3.87907e-05 -4.20891e-07 0)
(3.89845e-05 -4.58855e-07 0)
(3.91954e-05 -4.94674e-07 0)
(3.94225e-05 -5.28112e-07 0)
(3.96646e-05 -5.58884e-07 0)
(3.99204e-05 -5.86642e-07 0)
(4.01886e-05 -6.11032e-07 0)
(4.04678e-05 -6.31842e-07 0)
(4.07564e-05 -6.48898e-07 0)
(4.10527e-05 -6.61859e-07 0)
(4.13549e-05 -6.7042e-07 0)
(4.16609e-05 -6.7439e-07 0)
(4.19688e-05 -6.73572e-07 0)
(4.22764e-05 -6.67769e-07 0)
(4.25817e-05 -6.56736e-07 0)
(4.28823e-05 -6.40273e-07 0)
(4.31757e-05 -6.18299e-07 0)
(4.34596e-05 -5.90676e-07 0)
(4.37317e-05 -5.57217e-07 0)
(4.39894e-05 -5.1779e-07 0)
(4.42299e-05 -4.72287e-07 0)
(4.44508e-05 -4.20682e-07 0)
(4.46493e-05 -3.62993e-07 0)
(4.48229e-05 -2.99143e-07 0)
(4.49689e-05 -2.29096e-07 0)
(4.50847e-05 -1.529e-07 0)
(4.51676e-05 -7.05491e-08 0)
(4.5215e-05 1.78774e-08 0)
(4.52245e-05 1.12214e-07 0)
(4.51933e-05 2.1233e-07 0)
(4.51192e-05 3.18066e-07 0)
(4.49998e-05 4.2928e-07 0)
(4.48327e-05 5.45847e-07 0)
(4.46157e-05 6.67474e-07 0)
(4.43468e-05 7.93773e-07 0)
(4.40241e-05 9.24454e-07 0)
(4.36456e-05 1.05924e-06 0)
(4.321e-05 1.19775e-06 0)
(4.27156e-05 1.33956e-06 0)
(4.21611e-05 1.48417e-06 0)
(4.15455e-05 1.63103e-06 0)
(4.0868e-05 1.77964e-06 0)
(4.0128e-05 1.92939e-06 0)
(3.93252e-05 2.07961e-06 0)
(3.84595e-05 2.22962e-06 0)
(3.75312e-05 2.37877e-06 0)
(3.65409e-05 2.52627e-06 0)
(3.54895e-05 2.67123e-06 0)
(3.43782e-05 2.81271e-06 0)
(3.32088e-05 2.94973e-06 0)
(3.19836e-05 3.08123e-06 0)
(3.07049e-05 3.2062e-06 0)
(2.93757e-05 3.32355e-06 0)
(2.79997e-05 3.43196e-06 0)
(2.65808e-05 3.53008e-06 0)
(2.51236e-05 3.61654e-06 0)
(2.36333e-05 3.68989e-06 0)
(2.21157e-05 3.74857e-06 0)
(2.0577e-05 3.79092e-06 0)
(1.90244e-05 3.81524e-06 0)
(1.74655e-05 3.81969e-06 0)
(1.59087e-05 3.80241e-06 0)
(1.43633e-05 3.76144e-06 0)
(1.28389e-05 3.69473e-06 0)
(1.13461e-05 3.60025e-06 0)
(9.89588e-06 3.47604e-06 0)
(8.50007e-06 3.32021e-06 0)
(7.17087e-06 3.13096e-06 0)
(5.92086e-06 2.9069e-06 0)
(4.76275e-06 2.64733e-06 0)
(3.70903e-06 2.35261e-06 0)
(2.77154e-06 2.02466e-06 0)
(1.96104e-06 1.66776e-06 0)
(1.28637e-06 1.28996e-06 0)
(7.53023e-07 9.05124e-07 0)
(3.61969e-07 5.35449e-07 0)
(1.14086e-07 2.15379e-07 0)
(1.31578e-08 4.8363e-09 0)
(2.79825e-08 -2.22227e-07 0)
(1.8143e-07 -5.2545e-07 0)
(5.39879e-07 -9.28163e-07 0)
(1.05939e-06 -1.42407e-06 0)
(1.72908e-06 -1.94866e-06 0)
(2.54608e-06 -2.46108e-06 0)
(3.50167e-06 -2.93979e-06 0)
(4.58663e-06 -3.37206e-06 0)
(5.78775e-06 -3.7538e-06 0)
(7.09125e-06 -4.08304e-06 0)
(8.48395e-06 -4.36025e-06 0)
(9.95118e-06 -4.58783e-06 0)
(1.14793e-05 -4.76815e-06 0)
(1.30549e-05 -4.90387e-06 0)
(1.46647e-05 -4.99845e-06 0)
(1.62969e-05 -5.05495e-06 0)
(1.79401e-05 -5.07639e-06 0)
(1.95839e-05 -5.06613e-06 0)
(2.12186e-05 -5.027e-06 0)
(2.28352e-05 -4.96183e-06 0)
(2.44261e-05 -4.87331e-06 0)
(2.59838e-05 -4.7641e-06 0)
(2.7502e-05 -4.63671e-06 0)
(2.89751e-05 -4.49335e-06 0)
(3.03982e-05 -4.33627e-06 0)
(3.17668e-05 -4.16746e-06 0)
(3.30777e-05 -3.98884e-06 0)
(3.43275e-05 -3.8023e-06 0)
(3.5514e-05 -3.60944e-06 0)
(3.66353e-05 -3.41173e-06 0)
(3.76899e-05 -3.2108e-06 0)
(3.86769e-05 -3.00798e-06 0)
(3.95961e-05 -2.80439e-06 0)
(4.04471e-05 -2.60135e-06 0)
(4.12304e-05 -2.40002e-06 0)
(4.19466e-05 -2.20126e-06 0)
(4.25969e-05 -2.00592e-06 0)
(4.31825e-05 -1.81491e-06 0)
(4.37048e-05 -1.629e-06 0)
(4.41659e-05 -1.44885e-06 0)
(4.45677e-05 -1.27504e-06 0)
(4.49125e-05 -1.10811e-06 0)
(4.52027e-05 -9.48537e-07 0)
(4.54408e-05 -7.96816e-07 0)
(4.56297e-05 -6.53255e-07 0)
(4.57723e-05 -5.18044e-07 0)
(4.58714e-05 -3.91524e-07 0)
(4.593e-05 -2.74011e-07 0)
(4.59512e-05 -1.65513e-07 0)
(4.59383e-05 -6.60572e-08 0)
(4.58943e-05 2.418e-08 0)
(4.58223e-05 1.05095e-07 0)
(4.57257e-05 1.76803e-07 0)
(4.56076e-05 2.39471e-07 0)
(4.54711e-05 2.9317e-07 0)
(4.53192e-05 3.37996e-07 0)
(4.5155e-05 3.74083e-07 0)
(4.49815e-05 4.01618e-07 0)
(4.48016e-05 4.20926e-07 0)
(4.46181e-05 4.32347e-07 0)
(4.44338e-05 4.36079e-07 0)
(4.42512e-05 4.32331e-07 0)
(4.40728e-05 4.2149e-07 0)
(4.39013e-05 4.04017e-07 0)
(4.37387e-05 3.80236e-07 0)
(4.35872e-05 3.50424e-07 0)
(4.34486e-05 3.15066e-07 0)
(4.33249e-05 2.74734e-07 0)
(4.32179e-05 2.29805e-07 0)
(4.31291e-05 1.80581e-07 0)
(4.30598e-05 1.27523e-07 0)
(4.30113e-05 7.11681e-08 0)
(4.29846e-05 1.20233e-08 0)
(4.29806e-05 -4.93881e-08 0)
(4.30001e-05 -1.12572e-07 0)
(4.30436e-05 -1.7709e-07 0)
(4.31114e-05 -2.42518e-07 0)
(4.32038e-05 -3.08379e-07 0)
(4.33209e-05 -3.74088e-07 0)
(4.34625e-05 -4.39073e-07 0)
(4.36283e-05 -5.02895e-07 0)
(4.38176e-05 -5.65133e-07 0)
(4.403e-05 -6.25273e-07 0)
(4.42646e-05 -6.82752e-07 0)
(4.45206e-05 -7.37124e-07 0)
(4.47966e-05 -7.88012e-07 0)
(4.50914e-05 -8.34957e-07 0)
(4.54035e-05 -8.77487e-07 0)
(4.57314e-05 -9.15155e-07 0)
(4.60732e-05 -9.47526e-07 0)
(4.64271e-05 -9.74246e-07 0)
(4.6791e-05 -9.94937e-07 0)
(4.71628e-05 -1.00922e-06 0)
(4.75402e-05 -1.01679e-06 0)
(4.79207e-05 -1.01728e-06 0)
(4.83018e-05 -1.01035e-06 0)
(4.8681e-05 -9.95783e-07 0)
(4.90555e-05 -9.73302e-07 0)
(4.94224e-05 -9.42643e-07 0)
(4.97789e-05 -9.03587e-07 0)
(5.01222e-05 -8.55921e-07 0)
(5.04492e-05 -7.99519e-07 0)
(5.07568e-05 -7.34281e-07 0)
(5.10418e-05 -6.60056e-07 0)
(5.13011e-05 -5.76781e-07 0)
(5.15317e-05 -4.84454e-07 0)
(5.17304e-05 -3.83055e-07 0)
(5.1894e-05 -2.72639e-07 0)
(5.20194e-05 -1.53256e-07 0)
(5.21036e-05 -2.4944e-08 0)
(5.21433e-05 1.12111e-07 0)
(5.21358e-05 2.57668e-07 0)
(5.2078e-05 4.11517e-07 0)
(5.19673e-05 5.73402e-07 0)
(5.18009e-05 7.43018e-07 0)
(5.15761e-05 9.20023e-07 0)
(5.12904e-05 1.10396e-06 0)
(5.09416e-05 1.29433e-06 0)
(5.05277e-05 1.49067e-06 0)
(5.00466e-05 1.69244e-06 0)
(4.94967e-05 1.89893e-06 0)
(4.88764e-05 2.10947e-06 0)
(4.81844e-05 2.32335e-06 0)
(4.74198e-05 2.53975e-06 0)
(4.65818e-05 2.7578e-06 0)
(4.56703e-05 2.97657e-06 0)
(4.4685e-05 3.19502e-06 0)
(4.36265e-05 3.41208e-06 0)
(4.24952e-05 3.62662e-06 0)
(4.12923e-05 3.8374e-06 0)
(4.00193e-05 4.04307e-06 0)
(3.86783e-05 4.24221e-06 0)
(3.72717e-05 4.43336e-06 0)
(3.58026e-05 4.61488e-06 0)
(3.42745e-05 4.78512e-06 0)
(3.26914e-05 4.94235e-06 0)
(3.10581e-05 5.08466e-06 0)
(2.93799e-05 5.20999e-06 0)
(2.76628e-05 5.3163e-06 0)
(2.59134e-05 5.40137e-06 0)
(2.41391e-05 5.46283e-06 0)
(2.23481e-05 5.49828e-06 0)
(2.05491e-05 5.50523e-06 0)
(1.87517e-05 5.48106e-06 0)
(1.69664e-05 5.42307e-06 0)
(1.5204e-05 5.32851e-06 0)
(1.34765e-05 5.19462e-06 0)
(1.17963e-05 5.01877e-06 0)
(1.01765e-05 4.79854e-06 0)
(8.63052e-06 4.53182e-06 0)
(7.17211e-06 4.21703e-06 0)
(5.81536e-06 3.8535e-06 0)
(4.57395e-06 3.44201e-06 0)
(3.46076e-06 2.98545e-06 0)
(2.48772e-06 2.4897e-06 0)
(1.66531e-06 1.96497e-06 0)
(1.00122e-06 1.42797e-06 0)
(4.99416e-07 9.04259e-07 0)
(1.67452e-07 4.32137e-07 0)
(2.27724e-08 7.50763e-08 0)
(3.24707e-08 -3.19001e-07 0)
(2.20417e-07 -8.2543e-07 0)
(6.49179e-07 -1.41084e-06 0)
(1.26825e-06 -2.07504e-06 0)
(2.05817e-06 -2.75877e-06 0)
(3.00883e-06 -3.42161e-06 0)
(4.11066e-06 -4.03877e-06 0)
(5.35015e-06 -4.59814e-06 0)
(6.71343e-06 -5.09339e-06 0)
(8.18638e-06 -5.52175e-06 0)
(9.7531e-06 -5.88378e-06 0)
(1.1399e-05 -6.18144e-06 0)
(1.31094e-05 -6.41739e-06 0)
(1.48693e-05 -6.59546e-06 0)
(1.66652e-05 -6.71922e-06 0)
(1.84839e-05 -6.79256e-06 0)
(2.0313e-05 -6.81948e-06 0)
(2.21412e-05 -6.80401e-06 0)
(2.39579e-05 -6.75007e-06 0)
(2.57534e-05 -6.66114e-06 0)
(2.75188e-05 -6.54091e-06 0)
(2.92463e-05 -6.39286e-06 0)
(3.09287e-05 -6.22014e-06 0)
(3.25598e-05 -6.02585e-06 0)
(3.4134e-05 -5.81299e-06 0)
(3.56466e-05 -5.58411e-06 0)
(3.70935e-05 -5.34197e-06 0)
(3.84714e-05 -5.08898e-06 0)
(3.97776e-05 -4.82728e-06 0)
(4.10099e-05 -4.55916e-06 0)
(4.21667e-05 -4.28661e-06 0)
(4.32472e-05 -4.01133e-06 0)
(4.42507e-05 -3.73505e-06 0)
(4.51771e-05 -3.45954e-06 0)
(4.60269e-05 -3.18615e-06 0)
(4.68009e-05 -2.91621e-06 0)
(4.75002e-05 -2.65102e-06 0)
(4.81263e-05 -2.39171e-06 0)
(4.8681e-05 -2.1393e-06 0)
(4.91664e-05 -1.89473e-06 0)
(4.95848e-05 -1.6588e-06 0)
(4.99389e-05 -1.43227e-06 0)
(5.02313e-05 -1.21587e-06 0)
(5.04651e-05 -1.01013e-06 0)
(5.06435e-05 -8.15465e-07 0)
(5.07697e-05 -6.32324e-07 0)
(5.08469e-05 -4.61197e-07 0)
(5.08787e-05 -3.02278e-07 0)
(5.08688e-05 -1.55662e-07 0)
(5.08207e-05 -2.15601e-08 0)
(5.07378e-05 9.99025e-08 0)
(5.0624e-05 2.08734e-07 0)
(5.04829e-05 3.04974e-07 0)
(5.03182e-05 3.88693e-07 0)
(5.01334e-05 4.60046e-07 0)
(4.9932e-05 5.1927e-07 0)
(4.97175e-05 5.66543e-07 0)
(4.94935e-05 6.02092e-07 0)
(4.92633e-05 6.26338e-07 0)
(4.903e-05 6.39671e-07 0)
(4.87968e-05 6.42372e-07 0)
(4.85667e-05 6.34874e-07 0)
(4.83427e-05 6.17749e-07 0)
(4.81275e-05 5.91473e-07 0)
(4.79237e-05 5.56444e-07 0)
(4.77337e-05 5.13157e-07 0)
(4.756e-05 4.62245e-07 0)
(4.74045e-05 4.04383e-07 0)
(4.72693e-05 3.40167e-07 0)
(4.7156e-05 2.70162e-07 0)
(4.70664e-05 1.94989e-07 0)
(4.70019e-05 1.15275e-07 0)
(4.69636e-05 3.16487e-08 0)