/*--------------------------------*- C++ -*----------------------------------*\
  =========                 |
  \\      /  F ield         | OpenFOAM: The Open Source CFD Toolbox
   \\    /   O peration     | Website:  https://openfoam.org
    \\  /    A nd           | Version:  7
     \\/     M anipulation  |
\*---------------------------------------------------------------------------*/
FoamFile
{
    version     2.0;
    format      ascii;
    class       volScalarField;
    location    "0.025";
    object      p;
}
// * * * * * * * * * * * * * * * * * * * * * * * * * * * * * * * * * * * * * //

dimensions      [0 2 -2 0 0 0 0];

internalField   nonuniform List<scalar> 
12800
(
3.34912e-07
-0.000518053
-0.00633944
-0.013825
-0.0206823
-0.0257152
-0.0284181
-0.0282043
-0.0251767
-0.0195991
-0.0117325
-0.00188689
0.00976002
0.022787
0.036885
0.0517165
0.0668881
0.0821478
0.0973722
0.112201
0.126394
0.139836
0.152558
0.164681
0.176392
0.187304
0.197554
0.207459
0.217125
0.22685
0.236865
0.247025
0.257116
0.267188
0.277383
0.28772
0.298131
0.308556
0.318929
0.329145
0.339189
0.349163
0.359156
0.369192
0.379238
0.389314
0.399465
0.40969
0.420109
0.431009
0.442714
0.455484
0.469437
0.484604
0.500995
0.518528
0.536996
0.55614
0.575719
0.595543
0.615476
0.63543
0.655427
0.675607
0.696128
0.717053
0.738331
0.759852
0.781508
0.803181
0.824692
0.845814
0.86636
0.886227
0.905375
0.923801
0.94154
0.958676
0.97535
0.991727
1.00793
1.024
1.03988
1.05553
1.07091
1.08603
1.10088
1.11547
1.1299
1.1443
1.15884
1.17365
1.18881
1.20431
1.2201
1.23614
1.25243
1.26896
1.28567
1.30246
1.31928
1.3361
1.35292
1.36972
1.38642
1.40296
1.4193
1.4354
1.45124
1.46683
1.48217
1.49719
1.51173
1.52562
1.53876
1.55118
1.56298
1.5742
1.58486
1.59496
1.60463
1.61408
1.62344
1.6327
1.64166
1.6501
1.65788
1.665
1.67156
1.67764
1.68327
1.68844
1.6932
1.69765
1.70191
1.70608
1.71013
1.71401
1.71765
1.72096
1.72387
1.72623
1.72782
1.72842
1.72785
1.72606
1.72317
1.71938
1.7149
1.70996
1.70475
1.69944
1.69418
1.68915
1.68455
1.68056
1.67731
1.67494
1.67356
1.67322
-0.00367249
-0.000886005
-0.0019379
-0.00447136
-0.00698396
-0.00873956
-0.00910402
-0.00762908
-0.00407054
0.0013156
0.00830137
0.0168929
0.0268309
0.0379715
0.0501689
0.0630757
0.0763197
0.0897129
0.103103
0.116472
0.129613
0.142073
0.154165
0.165956
0.177301
0.188296
0.19886
0.208948
0.218749
0.228518
0.238502
0.248821
0.259393
0.270102
0.280839
0.291483
0.302025
0.312541
0.323052
0.333509
0.343907
0.35433
0.364804
0.375285
0.385792
0.396364
0.407017
0.417758
0.428676
0.440023
0.452075
0.465012
0.478985
0.494114
0.5104
0.527715
0.545803
0.564379
0.583275
0.602387
0.621559
0.640688
0.659832
0.679145
0.698768
0.718775
0.739128
0.759728
0.780502
0.801362
0.822104
0.842487
0.862364
0.881685
0.900417
0.91853
0.936039
0.953021
0.969617
0.986012
1.00234
1.01858
1.03465
1.05049
1.06611
1.08151
1.09668
1.11159
1.1263
1.14093
1.15564
1.17056
1.18574
1.20121
1.21689
1.23273
1.24873
1.2649
1.2812
1.29756
1.31394
1.33035
1.34679
1.36322
1.3796
1.39584
1.4119
1.42774
1.44338
1.45882
1.47407
1.48901
1.50351
1.51739
1.53061
1.54321
1.55524
1.5667
1.57756
1.58784
1.5977
1.60735
1.61692
1.62632
1.63535
1.64377
1.6515
1.65859
1.66516
1.67125
1.67686
1.68195
1.68658
1.69086
1.69494
1.69889
1.70268
1.70627
1.7096
1.71263
1.71533
1.71759
1.7192
1.7199
1.71952
1.71802
1.71552
1.71223
1.70838
1.70417
1.69975
1.69525
1.69078
1.68652
1.68264
1.67927
1.67649
1.67431
1.67288
1.67228
-0.00599046
0.000198969
0.00277868
0.00383013
0.00464489
0.00544946
0.00675423
0.00908662
0.0128256
0.0180437
0.0245172
0.0321144
0.0408067
0.0505445
0.0611758
0.0725718
0.0843598
0.0962286
0.108185
0.120278
0.132189
0.143963
0.155415
0.166766
0.177821
0.188662
0.199304
0.209662
0.219728
0.229644
0.239703
0.25011
0.260904
0.272012
0.283206
0.294211
0.304993
0.315687
0.32634
0.336985
0.347704
0.358547
0.369476
0.380403
0.391343
0.402345
0.413366
0.42443
0.435691
0.447366
0.459663
0.472717
0.486676
0.501733
0.517915
0.535011
0.55274
0.570866
0.589228
0.607726
0.626247
0.644714
0.663199
0.68188
0.700879
0.720207
0.739824
0.759692
0.779767
0.799932
0.819976
0.83969
0.858962
0.877771
0.896109
0.913942
0.93125
0.9481
0.964658
0.981116
0.997561
1.01394
1.03017
1.0462
1.06203
1.07765
1.09302
1.10811
1.12298
1.13773
1.15251
1.16743
1.18259
1.19799
1.21356
1.22925
1.24506
1.26098
1.27698
1.293
1.30903
1.32511
1.34128
1.35748
1.37365
1.38968
1.40554
1.42125
1.4368
1.4522
1.46738
1.48223
1.49664
1.5105
1.52381
1.53657
1.54881
1.56048
1.57154
1.58204
1.59213
1.602
1.61172
1.62119
1.63018
1.63853
1.64618
1.65324
1.65978
1.66586
1.67142
1.67645
1.68103
1.68527
1.68931
1.69318
1.69683
1.70021
1.7033
1.70613
1.70868
1.71085
1.71244
1.71317
1.71286
1.7115
1.70923
1.70629
1.70292
1.69929
1.69548
1.69154
1.68759
1.68378
1.68029
1.67722
1.67454
1.67227
1.67056
1.66945
-0.00575606
0.00340284
0.00892424
0.0130519
0.0162586
0.0188893
0.021353
0.0242492
0.0280839
0.0329021
0.0388635
0.0457387
0.0534837
0.0619642
0.0712507
0.0812322
0.0916518
0.102306
0.113005
0.123841
0.134682
0.145574
0.1564
0.167276
0.178035
0.188534
0.198953
0.209362
0.21969
0.23001
0.240437
0.251044
0.261961
0.273218
0.284618
0.295925
0.307063
0.318069
0.328968
0.339871
0.350945
0.362179
0.373483
0.384829
0.396215
0.407627
0.418992
0.430336
0.441886
0.453857
0.466364
0.47954
0.493558
0.508555
0.524537
0.541325
0.558657
0.576346
0.594268
0.612264
0.630197
0.648079
0.666052
0.684248
0.702723
0.721477
0.740472
0.759682
0.779083
0.798562
0.817902
0.836929
0.855603
0.873933
0.891878
0.909386
0.926473
0.943234
0.959811
0.976337
0.992868
1.00936
1.02574
1.04195
1.05799
1.07379
1.08929
1.10449
1.11945
1.13427
1.14909
1.16402
1.17914
1.19446
1.20993
1.2255
1.24118
1.25692
1.27268
1.2884
1.30412
1.31994
1.33592
1.35199
1.36801
1.38388
1.39961
1.41524
1.43077
1.44615
1.46127
1.47602
1.49035
1.50426
1.51772
1.53073
1.54324
1.55517
1.56651
1.57731
1.58769
1.59776
1.60756
1.61699
1.62588
1.63413
1.64173
1.64876
1.65529
1.66134
1.66688
1.67192
1.67653
1.68085
1.68493
1.68876
1.69228
1.69546
1.69831
1.70092
1.70329
1.70534
1.70682
1.70747
1.70713
1.70584
1.70376
1.70114
1.6982
1.69506
1.69172
1.68819
1.68454
1.68093
1.67755
1.67447
1.67163
1.66907
1.66682
1.66497
-0.00231139
0.00897659
0.0166479
0.0227685
0.027681
0.031501
0.0346623
0.0378806
0.0417083
0.0463253
0.0517801
0.058143
0.0651659
0.0728106
0.0809802
0.0896832
0.0989922
0.108501
0.118198
0.128062
0.138049
0.147983
0.158283
0.168693
0.179118
0.189413
0.199565
0.209744
0.220098
0.230682
0.241451
0.252393
0.263564
0.274924
0.286373
0.297847
0.309246
0.320497
0.331667
0.342911
0.354341
0.36589
0.377466
0.389122
0.400863
0.412581
0.424224
0.435865
0.44768
0.45986
0.472516
0.485776
0.499839
0.514797
0.530545
0.546932
0.563834
0.5811
0.598571
0.616095
0.633557
0.650985
0.668542
0.686346
0.704392
0.722647
0.741112
0.759785
0.778601
0.797408
0.816047
0.834438
0.852576
0.870434
0.887954
0.905115
0.92197
0.938623
0.955194
0.971775
0.988378
1.00494
1.0214
1.03775
1.05394
1.06988
1.08547
1.1007
1.11568
1.13054
1.1454
1.16034
1.17543
1.19067
1.20605
1.22154
1.23712
1.25275
1.26831
1.2838
1.2993
1.31495
1.33082
1.34677
1.36266
1.37839
1.39401
1.40957
1.42505
1.44035
1.45534
1.46998
1.48428
1.49827
1.51193
1.52519
1.53798
1.55021
1.56187
1.57296
1.58357
1.59377
1.60357
1.6129
1.62166
1.6298
1.63733
1.64433
1.65084
1.65689
1.66244
1.66754
1.67225
1.67667
1.68082
1.68462
1.68802
1.69098
1.69358
1.69595
1.69813
1.70001
1.70134
1.70187
1.70149
1.70026
1.6984
1.69613
1.69364
1.69095
1.688
1.68477
1.6813
1.67776
1.67434
1.67109
1.66796
1.66493
1.66204
1.65926
0.00454596
0.0168183
0.0256769
0.032932
0.0386768
0.0428737
0.0462966
0.0497045
0.0535105
0.0580298
0.0631845
0.0690737
0.0756676
0.0827252
0.0901738
0.0981189
0.106408
0.114959
0.123861
0.132976
0.142369
0.151712
0.161309
0.171254
0.181371
0.191481
0.201517
0.211579
0.221859
0.232437
0.243306
0.25446
0.265838
0.277316
0.288838
0.300398
0.311897
0.323269
0.334656
0.346198
0.357875
0.369626
0.381423
0.393296
0.405233
0.417119
0.428939
0.440838
0.45292
0.465248
0.477975
0.491291
0.505334
0.520144
0.535627
0.551645
0.568115
0.584948
0.601977
0.619038
0.636085
0.65321
0.670516
0.688017
0.705706
0.723602
0.741707
0.759969
0.778292
0.796537
0.814586
0.83241
0.850038
0.86745
0.884572
0.901383
0.917972
0.934484
0.951033
0.967653
0.984295
1.00088
1.01739
1.03381
1.05009
1.06609
1.0817
1.09692
1.11189
1.12677
1.14165
1.15661
1.17168
1.18687
1.2022
1.21765
1.23318
1.2487
1.26412
1.27947
1.29487
1.31046
1.32623
1.34203
1.35774
1.37333
1.38885
1.40433
1.41969
1.43483
1.44966
1.46421
1.47853
1.49263
1.50647
1.51997
1.53302
1.54554
1.55747
1.56881
1.57958
1.58984
1.5996
1.60882
1.61745
1.62547
1.63292
1.63988
1.64637
1.65241
1.65799
1.66316
1.66799
1.67252
1.67673
1.68051
1.68378
1.68653
1.68891
1.69105
1.69303
1.69473
1.69588
1.69629
1.69587
1.69475
1.69313
1.69122
1.68914
1.68683
1.68418
1.68116
1.67777
1.67421
1.67062
1.66709
1.66356
1.65998
1.6564
1.65257
0.0149149
0.0271934
0.03629
0.0437926
0.0496889
0.0539146
0.0572353
0.060478
0.0643041
0.0685939
0.073511
0.0791509
0.0852984
0.0919498
0.0989861
0.106332
0.113966
0.121872
0.129972
0.138574
0.147408
0.156383
0.165427
0.174886
0.184604
0.194411
0.204316
0.214359
0.224632
0.235182
0.24604
0.257209
0.268593
0.280102
0.291693
0.303296
0.314827
0.326305
0.337869
0.349593
0.361392
0.373246
0.385219
0.397257
0.409266
0.42123
0.433195
0.445271
0.45754
0.470018
0.482814
0.496143
0.510127
0.524712
0.539834
0.555484
0.571596
0.588004
0.604559
0.621196
0.637928
0.654822
0.671929
0.689232
0.706701
0.724347
0.742179
0.760137
0.778085
0.795865
0.813401
0.830735
0.847917
0.864906
0.881627
0.8981
0.914462
0.930857
0.947366
0.963984
0.980645
0.997272
1.01383
1.0303
1.04661
1.0626
1.07817
1.09338
1.10835
1.12325
1.13814
1.15306
1.16807
1.18323
1.19855
1.214
1.22947
1.24487
1.26019
1.27547
1.29086
1.30641
1.32205
1.33765
1.35314
1.36854
1.38393
1.39928
1.41449
1.42946
1.44416
1.45867
1.47305
1.48729
1.50132
1.51503
1.5283
1.54104
1.55317
1.56467
1.57554
1.58583
1.59556
1.60469
1.6132
1.62112
1.6285
1.63541
1.64188
1.64791
1.65352
1.65877
1.6637
1.66834
1.67259
1.67635
1.67952
1.68213
1.68433
1.68631
1.68811
1.68961
1.6906
1.69091
1.69049
1.68948
1.68811
1.68652
1.68475
1.6827
1.68025
1.67731
1.67394
1.67028
1.66645
1.66256
1.65853
1.65438
1.65002
1.64517
0.0288298
0.0401682
0.0486808
0.0557828
0.0613223
0.0652858
0.0683205
0.0713956
0.0747874
0.0788155
0.0834884
0.0887308
0.0945649
0.100817
0.107383
0.1143
0.121553
0.128958
0.136511
0.144623
0.15293
0.161457
0.170214
0.179293
0.188623
0.198103
0.207753
0.217663
0.22789
0.238438
0.249291
0.260393
0.271673
0.283122
0.294709
0.3063
0.317849
0.329447
0.341155
0.352957
0.364817
0.376737
0.388776
0.40088
0.412917
0.424918
0.437016
0.449245
0.461597
0.474162
0.487075
0.500431
0.514273
0.5286
0.543393
0.558656
0.574351
0.590342
0.606488
0.622749
0.639195
0.655905
0.672866
0.690006
0.707303
0.724791
0.742442
0.760135
0.777721
0.795093
0.812229
0.829173
0.845955
0.862538
0.878899
0.895114
0.911331
0.927665
0.944155
0.960775
0.977462
0.994154
1.01081
1.02736
1.04367
1.05961
1.07512
1.0903
1.1053
1.12021
1.13505
1.14988
1.16482
1.17994
1.19525
1.21067
1.22607
1.24138
1.25662
1.27189
1.28727
1.30275
1.31823
1.3336
1.34883
1.36401
1.3792
1.39438
1.40943
1.42425
1.43888
1.45339
1.46785
1.48224
1.49643
1.51029
1.52368
1.53653
1.54877
1.56036
1.5713
1.5816
1.59128
1.60033
1.60878
1.61664
1.62398
1.63086
1.6373
1.64331
1.64895
1.65426
1.65931
1.66404
1.66835
1.6721
1.67521
1.67773
1.67984
1.68171
1.68337
1.68471
1.68556
1.68578
1.68538
1.6845
1.68332
1.68197
1.68039
1.67848
1.67608
1.67315
1.66974
1.66595
1.6619
1.65762
1.65306
1.64831
1.64316
1.63734
0.0457292
0.0555456
0.062798
0.0690314
0.0738375
0.0772822
0.0800699
0.0826698
0.0857232
0.0893414
0.093547
0.0983917
0.103797
0.109532
0.115628
0.122128
0.12898
0.135994
0.143275
0.150798
0.158697
0.166738
0.175162
0.183914
0.192929
0.202147
0.211552
0.221249
0.231325
0.241805
0.25261
0.263613
0.27479
0.286168
0.297695
0.309256
0.320829
0.332518
0.34432
0.35615
0.368039
0.380027
0.392052
0.404074
0.416111
0.428197
0.440382
0.452702
0.465162
0.477817
0.490791
0.504154
0.517881
0.531949
0.546414
0.561328
0.576619
0.592156
0.607886
0.623851
0.640103
0.656641
0.673418
0.690393
0.70757
0.724939
0.7424
0.759804
0.777032
0.794036
0.81083
0.82745
0.843897
0.860136
0.876198
0.892227
0.908384
0.924738
0.941256
0.957892
0.97462
0.991416
1.00821
1.02486
1.04118
1.05705
1.07249
1.08766
1.10268
1.11756
1.13232
1.14705
1.16191
1.17699
1.19227
1.20763
1.22294
1.23818
1.25341
1.26868
1.28403
1.29941
1.3147
1.32983
1.34481
1.35977
1.37477
1.38976
1.40463
1.41933
1.43392
1.44848
1.46305
1.47755
1.49182
1.5057
1.5191
1.53196
1.54423
1.55586
1.56682
1.57712
1.58676
1.59579
1.60422
1.61209
1.61944
1.62629
1.63269
1.63869
1.64434
1.64973
1.65488
1.65971
1.66408
1.66785
1.67095
1.67344
1.67551
1.67731
1.67887
1.68009
1.68083
1.68098
1.68058
1.67977
1.67871
1.67745
1.67594
1.67404
1.67161
1.66862
1.66513
1.66123
1.65699
1.65234
1.64729
1.64193
1.63607
1.6293
0.0649201
0.0726567
0.0783896
0.0832549
0.0871935
0.0900213
0.0922458
0.0944131
0.0970386
0.100176
0.103904
0.108205
0.113008
0.11827
0.123914
0.129925
0.136334
0.142983
0.149906
0.157004
0.164476
0.172127
0.180108
0.188478
0.197172
0.206118
0.215315
0.224825
0.234733
0.245082
0.255759
0.266634
0.277734
0.289053
0.300489
0.312023
0.323664
0.335398
0.347217
0.359089
0.370999
0.382971
0.394954
0.406887
0.418856
0.430986
0.443265
0.455642
0.468173
0.480964
0.494042
0.507365
0.520927
0.534787
0.54901
0.563602
0.578488
0.593606
0.608992
0.624717
0.640798
0.65718
0.673786
0.690595
0.707628
0.724846
0.742089
0.759174
0.77602
0.792657
0.809147
0.825498
0.841655
0.857598
0.873438
0.889376
0.905545
0.921934
0.938474
0.955144
0.971962
0.988899
1.00582
1.02253
1.03883
1.05465
1.07008
1.08524
1.10022
1.11501
1.12966
1.14432
1.15915
1.17422
1.18944
1.2047
1.21991
1.23511
1.25035
1.26564
1.28095
1.29619
1.31127
1.32616
1.34095
1.35574
1.37058
1.38539
1.4001
1.41472
1.42931
1.44397
1.45865
1.47319
1.48743
1.50124
1.51457
1.52739
1.53966
1.55129
1.56225
1.57253
1.58218
1.59123
1.59972
1.60764
1.61502
1.62185
1.62822
1.6342
1.63988
1.64535
1.65058
1.6555
1.65995
1.66377
1.66691
1.66943
1.67152
1.67329
1.67479
1.67591
1.67655
1.67663
1.6762
1.67539
1.67431
1.67301
1.67142
1.66941
1.66687
1.66378
1.66019
1.65618
1.65174
1.64678
1.6413
1.63538
1.62888
1.62126
0.0858251
0.0909586
0.0948809
0.0984167
0.101214
0.103273
0.104856
0.106483
0.108494
0.111116
0.114244
0.117867
0.122091
0.126892
0.132092
0.137641
0.143588
0.149865
0.15627
0.16307
0.170068
0.177369
0.184935
0.192897
0.201248
0.209889
0.218843
0.228178
0.237943
0.248125
0.258638
0.269401
0.280412
0.291648
0.303012
0.31452
0.326225
0.338024
0.34983
0.361704
0.373654
0.385575
0.397428
0.409282
0.421236
0.433343
0.445606
0.458031
0.470677
0.483597
0.496749
0.510046
0.523487
0.537171
0.551183
0.565502
0.580045
0.594817
0.609931
0.625477
0.641414
0.657628
0.674052
0.690701
0.707589
0.724608
0.741545
0.758251
0.77473
0.79106
0.807282
0.823356
0.839233
0.85496
0.870708
0.886654
0.902844
0.919223
0.935758
0.952485
0.969424
0.986482
1.00346
1.02014
1.03639
1.05219
1.06762
1.08277
1.09766
1.11231
1.12685
1.14149
1.15635
1.17143
1.18659
1.20173
1.21685
1.23202
1.24728
1.26259
1.27783
1.29291
1.30779
1.3225
1.33714
1.35181
1.36649
1.38114
1.39573
1.41031
1.42496
1.4397
1.45443
1.46894
1.48308
1.49677
1.51002
1.5228
1.53504
1.54665
1.55759
1.56788
1.57759
1.58674
1.59533
1.60332
1.61072
1.61755
1.6239
1.6299
1.63565
1.6412
1.64653
1.65154
1.65607
1.65998
1.6632
1.66581
1.66795
1.66974
1.67119
1.67223
1.67277
1.67275
1.67224
1.67135
1.67017
1.66872
1.66692
1.6647
1.66201
1.6588
1.65511
1.65099
1.64635
1.64112
1.63525
1.62889
1.62179
1.61346
0.107708
0.110204
0.112034
0.114008
0.11566
0.116813
0.117726
0.118607
0.119955
0.121886
0.124268
0.127224
0.130879
0.135163
0.139885
0.145013
0.150552
0.156407
0.162395
0.168747
0.175326
0.182234
0.189453
0.197062
0.205073
0.213429
0.222125
0.231257
0.240876
0.250879
0.261215
0.271886
0.282797
0.293886
0.305207
0.316765
0.328486
0.340296
0.352158
0.364071
0.37599
0.38782
0.399559
0.411334
0.42325
0.435308
0.447514
0.459959
0.472728
0.485777
0.498966
0.512223
0.525605
0.539202
0.553037
0.567074
0.581308
0.595834
0.610779
0.626165
0.641905
0.657914
0.674172
0.690691
0.707406
0.724136
0.740695
0.757034
0.773219
0.789307
0.805274
0.821073
0.836724
0.852353
0.868125
0.884125
0.900315
0.916643
0.933158
0.949942
0.966971
0.984066
1.00099
1.01757
1.03374
1.04953
1.06496
1.08005
1.09482
1.10935
1.12385
1.13853
1.15346
1.16855
1.18364
1.1987
1.21377
1.22896
1.24424
1.25952
1.27467
1.28962
1.30438
1.319
1.33356
1.34809
1.36261
1.3771
1.39159
1.40616
1.42084
1.43559
1.45025
1.46465
1.47865
1.49225
1.50544
1.51817
1.53035
1.54191
1.55283
1.56317
1.57298
1.58227
1.59097
1.59904
1.60646
1.6133
1.61969
1.62576
1.63161
1.63727
1.64271
1.64783
1.65246
1.65646
1.6598
1.66253
1.66476
1.66657
1.66798
1.66893
1.66934
1.66921
1.66858
1.66757
1.66622
1.66454
1.66248
1.66002
1.65714
1.65381
1.65005
1.64581
1.641
1.63554
1.62935
1.62264
1.61505
1.60608
0.130176
0.12979
0.129501
0.129744
0.130035
0.130172
0.130284
0.130536
0.13113
0.132216
0.13386
0.13616
0.139202
0.142948
0.147192
0.151885
0.157018
0.16239
0.168091
0.173938
0.180153
0.186653
0.193549
0.200884
0.208589
0.216671
0.225159
0.234096
0.24351
0.253353
0.263555
0.274074
0.284845
0.295846
0.307146
0.31873
0.330456
0.342274
0.354213
0.366193
0.378052
0.389759
0.401429
0.413163
0.424986
0.436932
0.449108
0.461629
0.4745
0.487594
0.50078
0.514037
0.527422
0.540954
0.554602
0.568371
0.582357
0.596708
0.611502
0.626687
0.642182
0.657972
0.674077
0.690451
0.706932
0.723315
0.739498
0.755534
0.771501
0.787384
0.803114
0.818686
0.834212
0.849853
0.865708
0.881754
0.897911
0.914181
0.93068
0.947487
0.96451
0.981517
0.998298
1.01476
1.03087
1.04664
1.06202
1.07701
1.09167
1.10616
1.12071
1.13548
1.15048
1.16555
1.18059
1.19562
1.21073
1.22595
1.24123
1.25646
1.27155
1.28647
1.30124
1.31586
1.33037
1.34478
1.35914
1.3735
1.38792
1.40244
1.41707
1.4317
1.4462
1.46043
1.47431
1.48783
1.50096
1.51363
1.52574
1.53723
1.54814
1.55854
1.56846
1.57787
1.58666
1.59479
1.60224
1.60914
1.61561
1.6218
1.62777
1.63356
1.63912
1.64434
1.64908
1.65321
1.65667
1.65953
1.66184
1.66367
1.66503
1.66588
1.66617
1.6659
1.66513
1.66393
1.66237
1.66044
1.65812
1.65542
1.65234
1.6489
1.64506
1.64071
1.63578
1.63011
1.62371
1.61672
1.60875
1.59921
0.152603
0.14929
0.146858
0.145214
0.143977
0.142955
0.14223
0.141775
0.141591
0.141936
0.142903
0.14453
0.146948
0.150157
0.153954
0.15821
0.162876
0.167823
0.173103
0.178584
0.184465
0.190656
0.197246
0.204301
0.21178
0.219634
0.227918
0.236692
0.245921
0.255589
0.265654
0.276013
0.286648
0.297612
0.308897
0.320434
0.332165
0.344057
0.356052
0.368023
0.379845
0.391519
0.403152
0.41481
0.426516
0.438371
0.450549
0.46314
0.476057
0.48914
0.50231
0.515592
0.528993
0.542443
0.555898
0.569446
0.583264
0.59748
0.612091
0.627019
0.642251
0.657842
0.673788
0.689951
0.706118
0.722139
0.738014
0.753831
0.769613
0.785286
0.800803
0.816242
0.831763
0.847482
0.863401
0.87944
0.895551
0.911794
0.928285
0.945043
0.961925
0.97873
0.995337
1.0117
1.02779
1.04351
1.0588
1.07368
1.08829
1.10282
1.11749
1.13235
1.14736
1.1624
1.17742
1.19247
1.20762
1.22287
1.23815
1.25335
1.26846
1.28344
1.2983
1.31298
1.32747
1.34181
1.35606
1.37032
1.38465
1.39906
1.41353
1.42798
1.44228
1.45635
1.47014
1.48361
1.49669
1.50929
1.52132
1.53276
1.54367
1.55412
1.56411
1.57358
1.58242
1.59059
1.59811
1.6051
1.61169
1.61802
1.62414
1.63006
1.63574
1.64109
1.64595
1.65021
1.65382
1.65678
1.65914
1.66095
1.66225
1.66302
1.6632
1.66281
1.66188
1.66049
1.6587
1.65652
1.65397
1.65104
1.64778
1.6442
1.64024
1.63579
1.63073
1.62492
1.61839
1.61118
1.60291
1.5929
0.174527
0.168359
0.163622
0.160091
0.157229
0.154983
0.153374
0.152105
0.151214
0.150906
0.151236
0.152216
0.154044
0.156742
0.160116
0.163947
0.168099
0.172678
0.177492
0.182713
0.188226
0.194182
0.200586
0.207384
0.214621
0.222306
0.230453
0.239065
0.248118
0.257619
0.267539
0.277772
0.288299
0.299199
0.310448
0.321951
0.333685
0.345632
0.357665
0.369618
0.381428
0.393126
0.404748
0.416308
0.427896
0.439701
0.451891
0.464477
0.47734
0.490377
0.503563
0.516885
0.530259
0.543587
0.556897
0.570345
0.584082
0.598157
0.612533
0.627202
0.642228
0.657649
0.673371
0.689207
0.705004
0.720717
0.736383
0.752027
0.7676
0.783049
0.798416
0.813842
0.829441
0.845224
0.861133
0.877116
0.893191
0.909437
0.925899
0.942518
0.959159
0.975718
0.992166
1.00847
1.02453
1.0402
1.05539
1.07021
1.08483
1.09946
1.11422
1.12914
1.14413
1.15912
1.17412
1.18918
1.20436
1.21961
1.23488
1.25012
1.26531
1.28041
1.29537
1.31011
1.32461
1.33892
1.35313
1.36731
1.38151
1.39575
1.41001
1.42424
1.43837
1.45233
1.46607
1.47951
1.49255
1.50508
1.51706
1.52847
1.53937
1.54983
1.55984
1.56932
1.5782
1.58641
1.59402
1.60115
1.60791
1.6144
1.62067
1.62674
1.63256
1.63803
1.64303
1.64743
1.65115
1.65418
1.65656
1.65834
1.65958
1.66028
1.6604
1.65993
1.65889
1.65733
1.65534
1.65294
1.65018
1.64706
1.6436
1.63984
1.63573
1.63118
1.62599
1.62009
1.61346
1.60614
1.59758
1.58721
0.195537
0.186555
0.179523
0.174067
0.169611
0.166252
0.163654
0.16157
0.159975
0.159028
0.158784
0.159209
0.160496
0.162721
0.165646
0.169006
0.17273
0.176885
0.181354
0.186255
0.191499
0.197261
0.203475
0.210071
0.217136
0.224705
0.232707
0.241127
0.250046
0.259449
0.269218
0.279308
0.289769
0.300615
0.31179
0.323257
0.335016
0.346996
0.359035
0.371001
0.382853
0.394581
0.40616
0.417626
0.429142
0.440918
0.453056
0.465527
0.478268
0.491258
0.504465
0.517782
0.53107
0.544291
0.55756
0.57102
0.584719
0.598638
0.612794
0.627275
0.642157
0.657386
0.672791
0.688231
0.703675
0.71915
0.734651
0.750113
0.765465
0.780729
0.796039
0.811523
0.827201
0.842997
0.85885
0.874773
0.890824
0.90705
0.923422
0.939846
0.956238
0.972588
0.98892
1.00518
1.02119
1.0368
1.05195
1.06678
1.08146
1.09616
1.11096
1.12586
1.1408
1.15574
1.17071
1.18577
1.20094
1.21618
1.23148
1.24678
1.26209
1.27732
1.29239
1.30719
1.32172
1.33604
1.35022
1.36433
1.3784
1.39245
1.40649
1.42052
1.43452
1.44841
1.46212
1.47553
1.48854
1.50103
1.51295
1.52432
1.53519
1.54562
1.55561
1.56508
1.57397
1.58225
1.58998
1.59728
1.60423
1.61091
1.61736
1.62358
1.62955
1.63516
1.64028
1.64478
1.64857
1.65163
1.654
1.65575
1.65694
1.65761
1.6577
1.6572
1.65611
1.65447
1.65235
1.64979
1.64685
1.64353
1.63988
1.63591
1.63163
1.62695
1.62165
1.61568
1.60897
1.60159
1.59283
1.58214
0.21507
0.203453
0.194298
0.186989
0.181085
0.17651
0.173005
0.170204
0.167884
0.166278
0.165491
0.165475
0.166288
0.167985
0.170405
0.173335
0.176716
0.180375
0.184572
0.189187
0.194273
0.199803
0.205809
0.212321
0.219287
0.226685
0.234515
0.242816
0.251643
0.260927
0.270562
0.280565
0.29098
0.301762
0.312864
0.324309
0.336088
0.348076
0.360123
0.372141
0.384059
0.395791
0.407307
0.418714
0.430203
0.441919
0.453912
0.466196
0.478805
0.491742
0.504904
0.518126
0.531307
0.544494
0.557815
0.571323
0.584984
0.598787
0.61282
0.627201
0.641945
0.656917
0.671958
0.687023
0.702171
0.717429
0.732734
0.747988
0.76316
0.77834
0.793669
0.809212
0.824912
0.840684
0.856505
0.872415
0.888451
0.904604
0.920819
0.937034
0.953234
0.96946
0.985721
1.00191
1.01785
1.0334
1.04856
1.06346
1.07822
1.09295
1.10771
1.12252
1.13737
1.15227
1.16722
1.18228
1.19744
1.21269
1.22802
1.24341
1.25883
1.27419
1.28936
1.30423
1.31882
1.33316
1.34735
1.36141
1.37537
1.38927
1.40314
1.41702
1.43092
1.44475
1.45843
1.47182
1.48479
1.49723
1.50909
1.52039
1.53119
1.54155
1.55148
1.56092
1.56983
1.5782
1.58609
1.59358
1.60074
1.60762
1.61425
1.62064
1.62675
1.63248
1.63769
1.64224
1.64604
1.64907
1.65142
1.65315
1.65434
1.655
1.65509
1.6546
1.65355
1.65194
1.64979
1.64713
1.64402
1.64051
1.63665
1.63248
1.62804
1.62318
1.61779
1.6117
1.60493
1.59747
1.5886
1.57768
0.232725
0.218797
0.207733
0.198768
0.191378
0.185649
0.181346
0.177832
0.174848
0.172636
0.171336
0.170852
0.171197
0.172431
0.174382
0.176845
0.179774
0.183166
0.187116
0.19147
0.196376
0.201757
0.207646
0.214057
0.22089
0.228121
0.235817
0.244046
0.252778
0.261921
0.271462
0.281435
0.291804
0.302503
0.313544
0.324968
0.336731
0.348707
0.36078
0.372854
0.384806
0.396532
0.408037
0.419439
0.430884
0.442475
0.454291
0.466417
0.478909
0.491728
0.504744
0.517834
0.530968
0.544203
0.557592
0.571122
0.584767
0.598566
0.612608
0.626936
0.641491
0.656149
0.670844
0.685612
0.700509
0.715517
0.730562
0.745598
0.760664
0.775858
0.791248
0.806817
0.822493
0.83824
0.854078
0.870021
0.88604
0.902084
0.918118
0.934151
0.95023
0.966394
0.982604
0.998717
1.01456
1.03005
1.04522
1.06018
1.07499
1.0897
1.10437
1.11906
1.13381
1.14866
1.16362
1.17869
1.19387
1.20916
1.22454
1.24001
1.25552
1.27096
1.28619
1.30113
1.31577
1.33019
1.34441
1.35847
1.37238
1.38618
1.39995
1.41375
1.42757
1.44135
1.45498
1.46833
1.48125
1.49363
1.50541
1.51662
1.52732
1.53759
1.54745
1.55687
1.56583
1.57433
1.58241
1.59011
1.59749
1.60458
1.61139
1.61794
1.62418
1.63
1.63526
1.6398
1.64356
1.64656
1.64887
1.6506
1.6518
1.65249
1.65264
1.65225
1.65132
1.64983
1.64775
1.64506
1.64181
1.63812
1.63406
1.6297
1.62505
1.62
1.61445
1.6082
1.60137
1.59386
1.58489
1.57387
0.248487
0.232448
0.219742
0.209334
0.200613
0.193759
0.18854
0.184418
0.180972
0.178148
0.176238
0.175319
0.175266
0.175983
0.177431
0.179538
0.182085
0.185231
0.188874
0.1931
0.197839
0.203108
0.20892
0.21518
0.221839
0.228937
0.236548
0.244687
0.253286
0.262314
0.271808
0.281747
0.29203
0.302628
0.313606
0.324988
0.336696
0.348631
0.360708
0.37281
0.384783
0.396535
0.408082
0.419502
0.43089
0.442362
0.454057
0.466087
0.478469
0.491129
0.503984
0.516996
0.530162
0.54348
0.556927
0.570485
0.584185
0.598084
0.612195
0.626463
0.640801
0.655159
0.669566
0.684083
0.698719
0.71343
0.728189
0.743036
0.758052
0.77329
0.788734
0.804313
0.819975
0.835735
0.851618
0.867591
0.883573
0.899505
0.915401
0.931321
0.947329
0.963436
0.979564
0.995564
1.0113
1.02673
1.04189
1.05685
1.07163
1.08626
1.10082
1.11541
1.1301
1.14492
1.15987
1.17497
1.1902
1.20555
1.22101
1.23655
1.25211
1.26757
1.28281
1.29778
1.3125
1.32701
1.34133
1.35544
1.36935
1.38314
1.39688
1.41063
1.42441
1.43813
1.45169
1.46495
1.47778
1.49008
1.50177
1.51288
1.52349
1.53368
1.54349
1.55293
1.56199
1.57067
1.57897
1.58693
1.59454
1.60184
1.60883
1.61552
1.62185
1.62772
1.63296
1.63747
1.6412
1.64417
1.64646
1.64818
1.64942
1.65019
1.65049
1.65028
1.64956
1.64824
1.64626
1.64357
1.64025
1.6364
1.63216
1.62761
1.62272
1.61745
1.61166
1.60526
1.59831
1.5908
1.58177
1.57071
0.262305
0.244519
0.230392
0.218682
0.208794
0.200908
0.1949
0.190155
0.18612
0.182795
0.180399
0.178973
0.178413
0.178668
0.179697
0.181404
0.183708
0.186581
0.189966
0.19405
0.198648
0.203802
0.20949
0.215586
0.222076
0.22905
0.236566
0.244577
0.253038
0.261993
0.271449
0.281299
0.291456
0.301959
0.312875
0.324178
0.335784
0.34764
0.35969
0.371801
0.383807
0.395608
0.407208
0.418655
0.430032
0.441475
0.453137
0.465115
0.477407
0.489964
0.502757
0.515781
0.52901
0.542394
0.555899
0.569538
0.58336
0.597376
0.611524
0.625708
0.639866
0.654003
0.668179
0.682438
0.696776
0.711181
0.7257
0.74042
0.755405
0.770659
0.786126
0.801734
0.817453
0.83329
0.849233
0.865208
0.881132
0.896989
0.912826
0.928709
0.944671
0.960693
0.976691
0.992547
1.00817
1.02354
1.03866
1.05356
1.06823
1.08274
1.0972
1.11172
1.12637
1.14117
1.15613
1.17125
1.18653
1.20196
1.21749
1.23308
1.24863
1.26406
1.27928
1.29428
1.30909
1.32373
1.33818
1.35239
1.36638
1.3802
1.39395
1.4077
1.42142
1.43506
1.44851
1.46164
1.47435
1.48653
1.49813
1.50916
1.5197
1.52985
1.53966
1.54918
1.55839
1.56728
1.57584
1.58405
1.5919
1.59939
1.60654
1.61333
1.61972
1.62558
1.63078
1.63525
1.63895
1.64192
1.64422
1.64596
1.64725
1.64817
1.64869
1.64875
1.64826
1.64713
1.64525
1.6426
1.63923
1.63528
1.63088
1.62612
1.62098
1.61544
1.60938
1.6028
1.59574
1.58822
1.57922
1.56814
0.274187
0.254964
0.239446
0.226682
0.215883
0.207147
0.200296
0.194855
0.190319
0.186558
0.183651
0.181703
0.180698
0.180571
0.181228
0.182519
0.184575
0.187217
0.190459
0.194277
0.198742
0.2038
0.209299
0.215203
0.221556
0.228417
0.235791
0.243642
0.25201
0.260934
0.270325
0.280049
0.290102
0.300552
0.311398
0.322573
0.33404
0.345805
0.357819
0.369925
0.381944
0.393778
0.405426
0.416931
0.428369
0.43986
0.45154
0.463499
0.475764
0.488319
0.501148
0.514219
0.527485
0.540909
0.554485
0.568235
0.582168
0.596236
0.610355
0.624456
0.63851
0.652516
0.666501
0.680501
0.694554
0.708724
0.723106
0.737773
0.752742
0.767994
0.783488
0.799186
0.815048
0.831027
0.847046
0.863016
0.878899
0.89473
0.910574
0.926461
0.942382
0.958297
0.974144
0.989849
1.00536
1.02065
1.0357
1.0505
1.06506
1.07946
1.09384
1.10831
1.12292
1.1377
1.15266
1.16781
1.18314
1.19862
1.21416
1.2297
1.24518
1.26052
1.27569
1.29072
1.30563
1.3204
1.33499
1.34934
1.36344
1.37735
1.39115
1.40488
1.41853
1.43203
1.44532
1.4583
1.47087
1.48295
1.49447
1.50544
1.51595
1.5261
1.536
1.54566
1.55509
1.56423
1.57304
1.58148
1.58952
1.59716
1.60442
1.61127
1.61765
1.62347
1.62863
1.63307
1.63676
1.63975
1.64209
1.64392
1.64536
1.64649
1.64728
1.64762
1.64739
1.64644
1.64468
1.64209
1.63873
1.63471
1.63017
1.6252
1.6198
1.61394
1.6076
1.60078
1.59364
1.58611
1.57716
1.56615
0.283982
0.263518
0.247029
0.233314
0.221627
0.212208
0.20469
0.198585
0.193517
0.189315
0.185991
0.18362
0.182207
0.181687
0.182003
0.183085
0.184798
0.18713
0.190212
0.193859
0.198171
0.20303
0.208314
0.214068
0.220308
0.227012
0.234188
0.241915
0.250264
0.259162
0.268455
0.278098
0.288147
0.298592
0.309339
0.320357
0.331707
0.343418
0.355391
0.36745
0.379444
0.391304
0.403021
0.414608
0.426124
0.437676
0.449396
0.461386
0.473689
0.486297
0.499173
0.512269
0.525546
0.538995
0.552626
0.566438
0.580396
0.594433
0.60849
0.622537
0.636545
0.650476
0.664325
0.67814
0.692019
0.706086
0.720439
0.735115
0.750103
0.765391
0.780977
0.796833
0.812887
0.829029
0.845133
0.861122
0.877002
0.892843
0.908698
0.924569
0.940422
0.956219
0.971921
0.987483
1.00287
1.01806
1.03302
1.04773
1.06221
1.07656
1.09089
1.10531
1.11989
1.13463
1.14959