/*--------------------------------*- C++ -*----------------------------------*\
  =========                 |
  \\      /  F ield         | OpenFOAM: The Open Source CFD Toolbox
   \\    /   O peration     | Website:  https://openfoam.org
    \\  /    A nd           | Version:  7
     \\/     M anipulation  |
\*---------------------------------------------------------------------------*/
FoamFile
{
    version     2.0;
    format      ascii;
    class       volVectorField;
    location    "0.025";
    object      U;
}
// * * * * * * * * * * * * * * * * * * * * * * * * * * * * * * * * * * * * * //

dimensions      [0 1 -1 0 0 0 0];

internalField   nonuniform List<vector> 
12800
(
(5.02971e-05 -4.23297e-05 0)
(0.000142704 -3.56161e-05 0)
(0.000190187 3.70434e-05 0)
(0.000113503 0.000106819 0)
(-6.82772e-05 0.000161958 0)
(-0.000339275 0.000203727 0)
(-0.000670465 0.000229701 0)
(-0.00104036 0.000241337 0)
(-0.00143673 0.00024287 0)
(-0.00183857 0.000234919 0)
(-0.00224311 0.000221596 0)
(-0.00263512 0.000201241 0)
(-0.00300819 0.000176924 0)
(-0.00335922 0.000150067 0)
(-0.00368242 0.000124673 0)
(-0.00397816 9.91708e-05 0)
(-0.00424703 7.22241e-05 0)
(-0.00448833 4.95062e-05 0)
(-0.00470618 2.91959e-05 0)
(-0.00490652 1.12866e-05 0)
(-0.00508889 8.45716e-07 0)
(-0.0052588 -9.56552e-06 0)
(-0.00542414 -1.55159e-05 0)
(-0.00557919 -2.02246e-05 0)
(-0.0057338 -2.07916e-05 0)
(-0.00589338 -1.91777e-05 0)
(-0.0060503 -1.57073e-05 0)
(-0.006216 -1.04468e-05 0)
(-0.00639001 -7.712e-06 0)
(-0.00656689 -6.14259e-06 0)
(-0.00674834 -3.12485e-06 0)
(-0.00693439 7.35087e-07 0)
(-0.00712089 5.49901e-06 0)
(-0.00730602 1.13805e-05 0)
(-0.00749092 1.56789e-05 0)
(-0.00767458 1.65914e-05 0)
(-0.00785562 1.67309e-05 0)
(-0.00803491 1.84177e-05 0)
(-0.00821374 2.12992e-05 0)
(-0.00839205 2.44384e-05 0)
(-0.00856894 2.80008e-05 0)
(-0.00874512 3.24201e-05 0)
(-0.00892117 3.65826e-05 0)
(-0.00909737 4.05401e-05 0)
(-0.0092752 4.56266e-05 0)
(-0.00945604 5.20042e-05 0)
(-0.00964237 5.98125e-05 0)
(-0.00983621 6.85237e-05 0)
(-0.0100376 7.719e-05 0)
(-0.0102466 8.55791e-05 0)
(-0.0104622 9.23527e-05 0)
(-0.0106815 9.63577e-05 0)
(-0.0109014 9.82377e-05 0)
(-0.0111181 9.84502e-05 0)
(-0.0113285 9.69855e-05 0)
(-0.0115302 9.36884e-05 0)
(-0.0117206 8.80827e-05 0)
(-0.011898 8.07954e-05 0)
(-0.0120622 7.32845e-05 0)
(-0.0122126 6.58101e-05 0)
(-0.012349 5.7941e-05 0)
(-0.0124714 4.96315e-05 0)
(-0.0125788 4.0716e-05 0)
(-0.0126701 3.0975e-05 0)
(-0.0127448 2.06298e-05 0)
(-0.0128024 9.82727e-06 0)
(-0.0128416 -1.46163e-06 0)
(-0.0128619 -1.27802e-05 0)
(-0.0128638 -2.34487e-05 0)
(-0.0128483 -3.32877e-05 0)
(-0.0128164 -4.2361e-05 0)
(-0.0127701 -5.04298e-05 0)
(-0.0127116 -5.7099e-05 0)
(-0.012643 -6.21333e-05 0)
(-0.0125668 -6.55314e-05 0)
(-0.0124852 -6.75866e-05 0)
(-0.0124003 -6.8748e-05 0)
(-0.0123131 -6.91889e-05 0)
(-0.0122249 -6.87396e-05 0)
(-0.0121368 -6.73848e-05 0)
(-0.0120497 -6.54905e-05 0)
(-0.0119639 -6.3407e-05 0)
(-0.0118795 -6.11552e-05 0)
(-0.0117968 -5.85582e-05 0)
(-0.011717 -5.5353e-05 0)
(-0.0116411 -5.11929e-05 0)
(-0.0115705 -4.59361e-05 0)
(-0.0115064 -3.99827e-05 0)
(-0.0114494 -3.40405e-05 0)
(-0.0113995 -2.85792e-05 0)
(-0.0113559 -2.37644e-05 0)
(-0.0113172 -1.99008e-05 0)
(-0.0112813 -1.75e-05 0)
(-0.0112459 -1.68402e-05 0)
(-0.011208 -1.77424e-05 0)
(-0.0111653 -1.98749e-05 0)
(-0.0111157 -2.31049e-05 0)
(-0.0110578 -2.73792e-05 0)
(-0.0109903 -3.23624e-05 0)
(-0.0109122 -3.74488e-05 0)
(-0.010823 -4.22066e-05 0)
(-0.0107228 -4.66499e-05 0)
(-0.0106119 -5.09728e-05 0)
(-0.0104907 -5.51522e-05 0)
(-0.0103595 -5.89741e-05 0)
(-0.0102183 -6.23706e-05 0)
(-0.0100674 -6.55115e-05 0)
(-0.00990692 -6.84942e-05 0)
(-0.00973735 -7.10859e-05 0)
(-0.00955938 -7.29094e-05 0)
(-0.00937396 -7.38345e-05 0)
(-0.00918218 -7.40369e-05 0)
(-0.00898512 -7.36307e-05 0)
(-0.00878406 -7.2363e-05 0)
(-0.00858054 -6.98151e-05 0)
(-0.00837629 -6.59394e-05 0)
(-0.00817274 -6.13261e-05 0)
(-0.0079705 -5.68622e-05 0)
(-0.00776925 -5.30947e-05 0)
(-0.00756814 -4.99191e-05 0)
(-0.0073664 -4.68766e-05 0)
(-0.00716365 -4.37365e-05 0)
(-0.00695968 -4.07727e-05 0)
(-0.00675411 -3.84938e-05 0)
(-0.00654627 -3.71401e-05 0)
(-0.00633546 -3.64337e-05 0)
(-0.00612137 -3.5779e-05 0)
(-0.00590436 -3.47064e-05 0)
(-0.00568513 -3.31979e-05 0)
(-0.00546429 -3.16909e-05 0)
(-0.00524184 -3.08004e-05 0)
(-0.00501707 -3.09722e-05 0)
(-0.00478874 -3.23365e-05 0)
(-0.00455546 -3.48199e-05 0)
(-0.00431605 -3.82876e-05 0)
(-0.00406971 -4.2567e-05 0)
(-0.00381599 -4.74592e-05 0)
(-0.00355465 -5.27979e-05 0)
(-0.00328569 -5.84468e-05 0)
(-0.00300946 -6.41849e-05 0)
(-0.00272691 -6.9587e-05 0)
(-0.00243993 -7.39991e-05 0)
(-0.00215157 -7.67221e-05 0)
(-0.0018659 -7.73981e-05 0)
(-0.0015874 -7.60303e-05 0)
(-0.00132062 -7.26765e-05 0)
(-0.00106966 -6.76739e-05 0)
(-0.000837821 -6.15964e-05 0)
(-0.000627864 -5.46906e-05 0)
(-0.000441888 -4.71457e-05 0)
(-0.000281412 -3.9063e-05 0)
(-0.000148363 -3.0468e-05 0)
(-4.38312e-05 -2.18485e-05 0)
(3.23842e-05 -1.30242e-05 0)
(8.00407e-05 -3.95313e-06 0)
(0.00010016 4.13378e-06 0)
(9.58974e-05 1.1286e-05 0)
(7.1559e-05 1.6453e-05 0)
(3.73259e-05 1.69946e-05 0)
(9.4127e-06 1.04612e-05 0)
(9.17822e-05 -0.000147919 0)
(0.000262969 -0.000170164 0)
(0.00037282 2.39605e-05 0)
(0.000297485 0.000222619 0)
(5.45824e-05 0.000393872 0)
(-0.000325094 0.000522441 0)
(-0.000820752 0.000619754 0)
(-0.00140629 0.000681121 0)
(-0.00206442 0.000716695 0)
(-0.00277849 0.00073202 0)
(-0.00352267 0.000726553 0)
(-0.00428758 0.000708474 0)
(-0.00506421 0.000675475 0)
(-0.00583844 0.000638289 0)
(-0.00660403 0.000594575 0)
(-0.00736079 0.000549826 0)
(-0.00810068 0.000507166 0)
(-0.00882549 0.000467145 0)
(-0.00953678 0.00043015 0)
(-0.0102279 0.00040224 0)
(-0.0109151 0.000377114 0)
(-0.0115932 0.000362659 0)
(-0.0122565 0.000350097 0)
(-0.0129228 0.000346814 0)
(-0.0135853 0.000342333 0)
(-0.0142451 0.000347502 0)
(-0.0149105 0.000356167 0)
(-0.0155772 0.000365881 0)
(-0.0162443 0.000375786 0)
(-0.0169141 0.000382959 0)
(-0.0175833 0.000386174 0)
(-0.0182493 0.000386834 0)
(-0.0189115 0.000387088 0)
(-0.0195671 0.00038661 0)
(-0.0202144 0.000384532 0)
(-0.0208527 0.000380586 0)
(-0.0214812 0.000376098 0)
(-0.0220996 0.000372267 0)
(-0.0227079 0.000368341 0)
(-0.0233064 0.000364994 0)
(-0.0238947 0.000362412 0)
(-0.0244722 0.000360416 0)
(-0.0250402 0.000359287 0)
(-0.0255996 0.000359135 0)
(-0.026151 0.000361816 0)
(-0.0266965 0.000367801 0)
(-0.0272379 0.000376019 0)
(-0.027777 0.000386604 0)
(-0.0283136 0.000398134 0)
(-0.0288465 0.000408195 0)
(-0.0293747 0.000414939 0)
(-0.029896 0.000416229 0)
(-0.0304067 0.000411649 0)
(-0.0309037 0.000402339 0)
(-0.0313836 0.00038843 0)
(-0.0318435 0.000370033 0)
(-0.0322822 0.000348409 0)
(-0.0326977 0.000324786 0)
(-0.0330874 0.000299937 0)
(-0.0334516 0.000274425 0)
(-0.0337904 0.00024835 0)
(-0.0341016 0.000221346 0)
(-0.0343841 0.000193142 0)
(-0.0346378 0.000163701 0)
(-0.0348613 0.000132819 0)
(-0.0350539 0.000100323 0)
(-0.0352165 6.68994e-05 0)
(-0.035349 3.39097e-05 0)
(-0.0354508 2.26392e-06 0)
(-0.0355238 -2.76501e-05 0)
(-0.0355712 -5.50896e-05 0)
(-0.0355946 -7.90451e-05 0)
(-0.0355956 -9.90584e-05 0)
(-0.0355774 -0.0001152 0)
(-0.0355433 -0.000127579 0)
(-0.0354954 -0.000136486 0)
(-0.0354354 -0.000142576 0)
(-0.0353658 -0.00014642 0)
(-0.0352883 -0.000148214 0)
(-0.0352036 -0.000148271 0)
(-0.0351132 -0.000147315 0)
(-0.0350188 -0.0001459 0)
(-0.0349214 -0.000143828 0)
(-0.034821 -0.000140444 0)
(-0.0347183 -0.000135256 0)
(-0.0346151 -0.00012809 0)
(-0.0345128 -0.000119007 0)
(-0.0344121 -0.000108434 0)
(-0.0343127 -9.7295e-05 0)
(-0.0342143 -8.68258e-05 0)
(-0.034116 -7.83066e-05 0)
(-0.0340161 -7.29481e-05 0)
(-0.0339119 -7.16646e-05 0)
(-0.0338006 -7.47718e-05 0)
(-0.0336791 -8.20179e-05 0)
(-0.0335443 -9.29385e-05 0)
(-0.0333929 -0.000107103 0)
(-0.0332229 -0.000124013 0)
(-0.0330326 -0.000142922 0)
(-0.0328205 -0.000162933 0)
(-0.0325851 -0.0001833 0)
(-0.0323258 -0.000203573 0)
(-0.0320423 -0.000223523 0)
(-0.0317349 -0.000243036 0)
(-0.0314035 -0.000262152 0)
(-0.0310479 -0.000281036 0)
(-0.0306679 -0.000299718 0)
(-0.0302636 -0.000317835 0)
(-0.0298353 -0.000334771 0)
(-0.0293838 -0.000350096 0)
(-0.0289101 -0.000363809 0)
(-0.0284158 -0.000376012 0)
(-0.0279022 -0.000386417 0)
(-0.0273706 -0.000394321 0)
(-0.0268223 -0.000399229 0)
(-0.0262583 -0.000401519 0)
(-0.0256802 -0.000402458 0)
(-0.025089 -0.000403492 0)
(-0.0244846 -0.000405425 0)
(-0.0238662 -0.000408208 0)
(-0.0232328 -0.000411428 0)
(-0.0225839 -0.000414959 0)
(-0.0219202 -0.000419162 0)
(-0.0212423 -0.000424475 0)
(-0.0205507 -0.000430899 0)
(-0.019845 -0.000437863 0)
(-0.0191247 -0.000444539 0)
(-0.0183902 -0.000450331 0)
(-0.0176426 -0.000455217 0)
(-0.0168836 -0.000459782 0)
(-0.0161143 -0.000464936 0)
(-0.0153347 -0.000471488 0)
(-0.0145445 -0.000479855 0)
(-0.0137433 -0.000490039 0)
(-0.0129315 -0.000501718 0)
(-0.01211 -0.000514317 0)
(-0.0112806 -0.000527151 0)
(-0.0104449 -0.000539605 0)
(-0.00960516 -0.000551133 0)
(-0.00876413 -0.000560998 0)
(-0.00792574 -0.000567999 0)
(-0.00709522 -0.000570454 0)
(-0.00627903 -0.00056657 0)
(-0.00548439 -0.000555034 0)
(-0.00471865 -0.000535404 0)
(-0.00398906 -0.000508036 0)
(-0.00330269 -0.000473937 0)
(-0.00266617 -0.000434493 0)
(-0.00208561 -0.000390571 0)
(-0.00156639 -0.000342505 0)
(-0.00111329 -0.000291209 0)
(-0.000730365 -0.000237561 0)
(-0.000419943 -0.000182081 0)
(-0.00018278 -0.000126343 0)
(-1.83918e-05 -7.23424e-05 0)
(7.73527e-05 -2.1959e-05 0)
(0.000111059 2.09757e-05 0)
(9.56876e-05 4.98136e-05 0)
(5.42775e-05 5.88144e-05 0)
(1.32345e-05 3.84977e-05 0)
(0.000125947 -0.000330296 0)
(0.00034574 -0.000372086 0)
(0.000504924 -2.30732e-05 0)
(0.000491165 0.000351657 0)
(0.000313577 0.000671031 0)
(-1.89883e-05 0.000940676 0)
(-0.000482925 0.0011518 0)
(-0.00106855 0.00131615 0)
(-0.00175999 0.00143395 0)
(-0.00254826 0.00151351 0)
(-0.00342048 0.00156545 0)
(-0.0043622 0.00158384 0)
(-0.0053622 0.00158508 0)
(-0.00641264 0.00156627 0)
(-0.00750605 0.00153691 0)
(-0.00862955 0.00150124 0)
(-0.00978476 0.00146164 0)
(-0.0109624 0.00142376 0)
(-0.0121516 0.00138803 0)
(-0.0133601 0.00135797 0)
(-0.0145768 0.00132938 0)
(-0.0158005 0.00131475 0)
(-0.0170308 0.00130007 0)
(-0.0182619 0.00129182 0)
(-0.019497 0.00129152 0)
(-0.0207302 0.00129179 0)
(-0.0219619 0.00129743 0)
(-0.0231897 0.00130759 0)
(-0.0244122 0.00131517 0)
(-0.0256251 0.00131917 0)
(-0.0268261 0.0013186 0)
(-0.0280158 0.00131128 0)
(-0.0291917 0.00129915 0)
(-0.0303511 0.00128474 0)
(-0.0314937 0.00126815 0)
(-0.0326184 0.00125 0)
(-0.0337218 0.00123129 0)
(-0.034803 0.00121261 0)
(-0.0358624 0.00119328 0)
(-0.0368988 0.0011732 0)
(-0.0379116 0.00115401 0)
(-0.0389009 0.00113543 0)
(-0.0398672 0.00111779 0)
(-0.0408109 0.00110286 0)
(-0.0417312 0.00109131 0)
(-0.0426287 0.00108381 0)
(-0.0435045 0.00107959 0)
(-0.0443576 0.00107713 0)
(-0.0451877 0.00107568 0)
(-0.0459944 0.0010724 0)
(-0.046777 0.00106381 0)
(-0.0475359 0.00104855 0)
(-0.0482689 0.00102563 0)
(-0.0489748 0.000994826 0)
(-0.0496542 0.000957506 0)
(-0.0503062 0.000914361 0)
(-0.0509294 0.000866211 0)
(-0.0515234 0.000815452 0)
(-0.0520872 0.00076335 0)
(-0.0526195 0.000709287 0)
(-0.053121 0.000653377 0)
(-0.0535917 0.000596319 0)
(-0.0540299 0.000537792 0)
(-0.0544352 0.000477313 0)
(-0.0548091 0.000415095 0)
(-0.055152 0.00035145 0)
(-0.0554635 0.000287012 0)
(-0.0557443 0.000223283 0)
(-0.0559957 0.000161852 0)
(-0.0562186 0.000103708 0)
(-0.0564144 4.97474e-05 0)
(-0.0565843 1.06249e-06 0)
(-0.0567297 -4.15637e-05 0)
(-0.0568516 -7.79695e-05 0)
(-0.0569515 -0.000108491 0)
(-0.0570313 -0.000133816 0)
(-0.0570926 -0.000154673 0)
(-0.0571361 -0.000171493 0)
(-0.0571622 -0.000184666 0)
(-0.0571721 -0.000195045 0)
(-0.0571677 -0.00020367 0)
(-0.0571501 -0.000210945 0)
(-0.0571194 -0.000216483 0)
(-0.0570759 -0.000219784 0)
(-0.0570202 -0.000220663 0)
(-0.0569531 -0.000219094 0)
(-0.0568744 -0.000215208 0)
(-0.0567837 -0.000209687 0)
(-0.0566804 -0.000203936 0)
(-0.0565641 -0.000199725 0)
(-0.0564334 -0.000198806 0)
(-0.056287 -0.000202782 0)
(-0.0561236 -0.000212968 0)
(-0.0559419 -0.00023005 0)
(-0.0557402 -0.000253897 0)
(-0.055516 -0.000283849 0)
(-0.0552671 -0.000319158 0)
(-0.054992 -0.00035913 0)
(-0.0546893 -0.000402944 0)
(-0.0543574 -0.000449528 0)
(-0.0539944 -0.000497715 0)
(-0.0535989 -0.000546542 0)
(-0.0531701 -0.000595457 0)
(-0.0527073 -0.000644334 0)
(-0.0522097 -0.000693315 0)
(-0.0516763 -0.000742495 0)
(-0.0511067 -0.000791598 0)
(-0.0505005 -0.000839916 0)
(-0.0498575 -0.000886657 0)
(-0.0491775 -0.000931371 0)
(-0.0484608 -0.000974 0)
(-0.0477078 -0.00101445 0)
(-0.0469189 -0.00105217 0)
(-0.0460943 -0.00108634 0)
(-0.0452339 -0.00111657 0)
(-0.0443378 -0.00114347 0)
(-0.0434065 -0.00116855 0)
(-0.0424406 -0.00119344 0)
(-0.0414406 -0.00121907 0)
(-0.0404064 -0.00124551 0)
(-0.0393379 -0.00127242 0)
(-0.0382354 -0.00129963 0)
(-0.0371003 -0.00132734 0)
(-0.0359338 -0.00135575 0)
(-0.034737 -0.00138464 0)
(-0.0335109 -0.00141327 0)
(-0.0322561 -0.00144064 0)
(-0.0309741 -0.001466 0)
(-0.0296667 -0.00148919 0)
(-0.0283364 -0.0015107 0)
(-0.0269855 -0.00153143 0)
(-0.025616 -0.00155217 0)
(-0.0242303 -0.00157325 0)
(-0.0228312 -0.00159448 0)
(-0.0214223 -0.00161516 0)
(-0.0200076 -0.00163431 0)
(-0.0185914 -0.00165079 0)
(-0.0171781 -0.00166345 0)
(-0.0157727 -0.00167108 0)
(-0.014381 -0.00167211 0)
(-0.0130097 -0.00166447 0)
(-0.0116664 -0.00164568 0)
(-0.0103593 -0.00161329 0)
(-0.00909643 -0.0015655 0)
(-0.00788548 -0.00150159 0)
(-0.0067344 -0.00142188 0)
(-0.00565148 -0.0013277 0)
(-0.00464501 -0.00122072 0)
(-0.00372331 -0.0011022 0)
(-0.00289399 -0.000973522 0)
(-0.0021636 -0.000836515 0)
(-0.00153753 -0.000693001 0)
(-0.00101894 -0.000545601 0)
(-0.000609078 -0.000398289 0)
(-0.000306498 -0.000255456 0)
(-0.000105845 -0.000123358 0)
(2.1946e-06 -1.29183e-05 0)
(3.82287e-05 6.48541e-05 0)
(3.02867e-05 9.24606e-05 0)
(5.98801e-06 6.66124e-05 0)
(0.000154677 -0.00055087 0)
(0.000400736 -0.000627351 0)
(0.000591228 -0.00010842 0)
(0.000583736 0.00044023 0)
(0.000396808 0.000918767 0)
(5.72361e-05 0.00133459 0)
(-0.000435728 0.00168722 0)
(-0.0010682 0.00197787 0)
(-0.0018412 0.00221808 0)
(-0.00273956 0.00240598 0)
(-0.00375656 0.00255104 0)
(-0.00488303 0.00266232 0)
(-0.00610907 0.00273796 0)
(-0.00742664 0.00278866 0)
(-0.00881967 0.00281906 0)
(-0.0102893 0.00283111 0)
(-0.0118192 0.00283645 0)
(-0.0134029 0.00283416 0)
(-0.015033 0.00282876 0)
(-0.0166973 0.00281961 0)
(-0.018393 0.00281623 0)
(-0.0201139 0.00280608 0)
(-0.0218494 0.00280663 0)
(-0.0235954 0.00280285 0)
(-0.0253513 0.00280287 0)
(-0.0271065 0.00280283 0)
(-0.0288568 0.00280226 0)
(-0.0306003 0.00280036 0)
(-0.0323327 0.00279612 0)
(-0.0340499 0.00278789 0)
(-0.0357501 0.00277226 0)
(-0.0374302 0.00274853 0)
(-0.0390866 0.00271834 0)
(-0.0407182 0.00268222 0)
(-0.042324 0.00264124 0)
(-0.0439017 0.0025982 0)
(-0.0454487 0.00255383 0)
(-0.0469636 0.00250737 0)
(-0.0484456 0.00245963 0)
(-0.049892 0.00241113 0)
(-0.0513024 0.00236254 0)
(-0.0526777 0.0023141 0)
(-0.0540166 0.00226604 0)
(-0.0553191 0.00222078 0)
(-0.0565844 0.00217925 0)
(-0.0578119 0.00214062 0)
(-0.0590021 0.00210504 0)
(-0.0601527 0.00207129 0)
(-0.061263 0.00203732 0)
(-0.062334 0.00200142 0)
(-0.0633659 0.00196052 0)
(-0.0643587 0.00191268 0)
(-0.0653133 0.00185816 0)
(-0.0662298 0.00179603 0)
(-0.0671089 0.00172584 0)
(-0.0679521 0.00164967 0)
(-0.0687597 0.00156936 0)
(-0.0695304 0.00148571 0)
(-0.0702648 0.00139992 0)
(-0.0709639 0.00131258 0)
(-0.071627 0.00122328 0)
(-0.0722531 0.00113217 0)
(-0.0728435 0.00103988 0)
(-0.0733994 0.000946333 0)
(-0.0739205 0.000851261 0)
(-0.074408 0.000755229 0)
(-0.0748637 0.000659499 0)
(-0.0752876 0.000565489 0)
(-0.0756798 0.000474446 0)
(-0.076042 0.000387412 0)
(-0.076376 0.000305519 0)
(-0.0766814 0.000230053 0)
(-0.0769579 0.000161822 0)
(-0.0772067 0.000100659 0)
(-0.0774293 4.59066e-05 0)
(-0.077626 -2.84425e-06 0)
(-0.0777968 -4.58354e-05 0)
(-0.0779423 -8.36637e-05 0)
(-0.0780636 -0.000117311 0)
(-0.0781609 -0.000147705 0)
(-0.078235 -0.000175454 0)
(-0.0782865 -0.000200879 0)
(-0.0783161 -0.000224042 0)
(-0.0783236 -0.000244793 0)
(-0.0783091 -0.000263003 0)
(-0.0782722 -0.000278869 0)
(-0.0782126 -0.000293031 0)
(-0.0781291 -0.000306507 0)
(-0.0780208 -0.000320612 0)
(-0.0778868 -0.000336963 0)
(-0.0777262 -0.000357448 0)
(-0.0775379 -0.000383949 0)
(-0.0773212 -0.000417924 0)
(-0.0770752 -0.000460067 0)
(-0.0767992 -0.000510321 0)
(-0.0764914 -0.000568185 0)
(-0.0761505 -0.000633013 0)
(-0.0757751 -0.000704104 0)
(-0.075364 -0.000780613 0)
(-0.0749155 -0.000861472 0)
(-0.0744273 -0.000945473 0)
(-0.0738979 -0.00103152 0)
(-0.0733259 -0.00111895 0)
(-0.0727103 -0.00120755 0)
(-0.0720496 -0.00129737 0)
(-0.0713424 -0.00138828 0)
(-0.0705873 -0.00147972 0)
(-0.0697836 -0.00157088 0)
(-0.0689309 -0.00166102 0)
(-0.0680284 -0.00174973 0)
(-0.0670753 -0.00183672 0)
(-0.066071 -0.00192155 0)
(-0.0650149 -0.00200352 0)
(-0.0639065 -0.002082 0)
(-0.0627454 -0.0021569 0)
(-0.061531 -0.00222886 0)
(-0.0602631 -0.00229901 0)
(-0.0589419 -0.00236848 0)
(-0.0575681 -0.00243796 0)
(-0.0561421 -0.00250761 0)
(-0.0546647 -0.00257728 0)
(-0.0531368 -0.00264674 0)
(-0.05156 -0.00271577 0)
(-0.049936 -0.00278402 0)
(-0.0482667 -0.00285086 0)
(-0.046554 -0.00291542 0)
(-0.0448 -0.00297678 0)
(-0.043007 -0.00303414 0)
(-0.041178 -0.00308712 0)
(-0.0393164 -0.00313574 0)
(-0.0374256 -0.00318031 0)
(-0.0355098 -0.00322111 0)
(-0.0335736 -0.00325812 0)
(-0.0316223 -0.00329081 0)
(-0.029662 -0.00331817 0)
(-0.0276992 -0.00333881 0)
(-0.0257404 -0.00335111 0)
(-0.0237925 -0.0033533 0)
(-0.0218628 -0.00334346 0)
(-0.0199596 -0.00331933 0)
(-0.0180918 -0.00327833 0)
(-0.0162688 -0.00321785 0)
(-0.0145001 -0.0031354 0)
(-0.0127948 -0.003029 0)
(-0.0111617 -0.00289768 0)
(-0.00960979 -0.00274167 0)
(-0.00814859 -0.00256205 0)
(-0.00678759 -0.0023606 0)
(-0.00553635 -0.00213914 0)
(-0.00440418 -0.00189993 0)
(-0.00339863 -0.00164603 0)
(-0.00252572 -0.0013807 0)
(-0.0017896 -0.0011088 0)
(-0.00119127 -0.000837095 0)
(-0.000728758 -0.000573472 0)
(-0.000397163 -0.000330738 0)
(-0.000182865 -0.000124456 0)
(-6.56487e-05 2.27915e-05 0)
(-1.39121e-05 8.79239e-05 0)
(-4.33697e-06 7.57991e-05 0)
(0.00017493 -0.000799557 0)
(0.000428504 -0.00090643 0)
(0.000601844 -0.00018962 0)
(0.000557696 0.000544019 0)
(0.000316029 0.00119759 0)
(-0.000101142 0.00177425 0)
(-0.000687801 0.00228065 0)
(-0.00143386 0.00272744 0)
(-0.00233645 0.00310595 0)
(-0.00339654 0.0034374 0)
(-0.00459628 0.00371155 0)
(-0.00593649 0.00394187 0)
(-0.00740624 0.00413103 0)
(-0.00899124 0.00428549 0)
(-0.0106909 0.00440672 0)
(-0.0124817 0.00450376 0)
(-0.0143624 0.004581 0)
(-0.0163239 0.00463863 0)
(-0.0183469 0.00468833 0)
(-0.0204263 0.00472331 0)
(-0.0225548 0.00475419 0)
(-0.0247152 0.0047736 0)
(-0.0269019 0.00479092 0)
(-0.0291115 0.00480109 0)
(-0.03133 0.004807 0)
(-0.033554 0.00480838 0)
(-0.0357746 0.00480283 0)
(-0.0379847 0.00478952 0)
(-0.0401798 0.00476877 0)
(-0.0423564 0.00473919 0)
(-0.0445112 0.00470008 0)
(-0.0466399 0.00465226 0)
(-0.0487394 0.00459568 0)
(-0.0508073 0.00453028 0)
(-0.05284 0.00445766 0)
(-0.0548353 0.00438011 0)
(-0.0567916 0.00429847 0)
(-0.0587064 0.00421287 0)
(-0.0605775 0.0041252 0)
(-0.062403 0.00403646 0)
(-0.0641823 0.00394593 0)
(-0.0659156 0.00385479 0)
(-0.0676006 0.00376409 0)
(-0.0692362 0.00367489 0)
(-0.0708227 0.00358858 0)
(-0.0723592 0.0035044 0)
(-0.0738446 0.00342232 0)
(-0.075278 0.00334255 0)
(-0.0766583 0.00326223 0)
(-0.0779862 0.00317894 0)
(-0.0792631 0.00309194 0)
(-0.0804892 0.00299958 0)
(-0.0816649 0.00290078 0)
(-0.0827936 0.00279594 0)
(-0.0838764 0.00268502 0)
(-0.0849132 0.00256822 0)
(-0.0859055 0.00244743 0)
(-0.086855 0.0023244 0)
(-0.0877612 0.00219935 0)
(-0.0886247 0.00207245 0)
(-0.0894473 0.00194459 0)
(-0.0902285 0.00181621 0)
(-0.0909682 0.00168697 0)
(-0.0916682 0.00155677 0)
(-0.0923309 0.00142614 0)
(-0.0929566 0.00129591 0)
(-0.0935454 0.00116715 0)
(-0.0940988 0.00104101 0)
(-0.0946184 0.000918402 0)
(-0.095105 0.000800336 0)
(-0.0955583 0.000688159 0)
(-0.0959784 0.00058298 0)
(-0.0963662 0.000485081 0)
(-0.0967222 0.000394271 0)
(-0.097046 0.000310362 0)
(-0.0973377 0.000233009 0)
(-0.0975978 0.000161542 0)
(-0.0978266 9.52992e-05 0)
(-0.098024 3.37435e-05 0)
(-0.0981901 -2.38623e-05 0)
(-0.0983256 -7.84896e-05 0)
(-0.0984312 -0.000130789 0)
(-0.0985063 -0.000180784 0)
(-0.0985505 -0.000228308 0)
(-0.0985638 -0.000273593 0)
(-0.0985461 -0.000317308 0)
(-0.0984962 -0.000360288 0)
(-0.0984123 -0.000403511 0)
(-0.0982935 -0.000448286 0)
(-0.0981389 -0.000496273 0)
(-0.0979477 -0.000549275 0)
(-0.0977188 -0.000609001 0)
(-0.0974517 -0.000676843 0)
(-0.0971458 -0.000753619 0)
(-0.0968002 -0.000839471 0)
(-0.0964138 -0.000934067 0)
(-0.0959853 -0.00103692 0)
(-0.0955138 -0.00114749 0)
(-0.0949979 -0.001265 0)
(-0.0944357 -0.0013884 0)
(-0.0938247 -0.00151653 0)
(-0.0931632 -0.00164852 0)
(-0.0924498 -0.00178388 0)
(-0.0916832 -0.00192232 0)
(-0.0908615 -0.00206345 0)
(-0.0899825 -0.00220676 0)
(-0.0890445 -0.00235165 0)
(-0.0880465 -0.00249754 0)
(-0.0869876 -0.00264388 0)
(-0.0858667 -0.00279003 0)
(-0.0846822 -0.00293528 0)
(-0.0834327 -0.00307894 0)
(-0.0821171 -0.00322044 0)
(-0.0807347 -0.00335941 0)
(-0.0792847 -0.00349578 0)
(-0.0777662 -0.00362978 0)
(-0.0761788 -0.00376199 0)
(-0.0745227 -0.00389302 0)
(-0.0727984 -0.00402331 0)
(-0.0710067 -0.00415291 0)
(-0.0691487 -0.00428148 0)
(-0.0672258 -0.00440846 0)
(-0.0652399 -0.00453322 0)
(-0.0631932 -0.00465504 0)
(-0.0610884 -0.00477308 0)
(-0.0589279 -0.00488627 0)
(-0.0567149 -0.0049934 0)
(-0.0544527 -0.00509339 0)
(-0.0521452 -0.00518547 0)
(-0.0497971 -0.00526914 0)
(-0.0474131 -0.00534406 0)
(-0.0449989 -0.00540979 0)
(-0.0425607 -0.0054657 0)
(-0.0401056 -0.00551074 0)
(-0.0376417 -0.00554343 0)
(-0.0351774 -0.00556193 0)
(-0.032721 -0.00556415 0)
(-0.0302813 -0.00554781 0)
(-0.0278677 -0.00551041 0)
(-0.0254901 -0.00544921 0)
(-0.0231593 -0.0053613 0)
(-0.0208864 -0.00524398 0)
(-0.0186823 -0.00509486 0)
(-0.0165573 -0.00491191 0)
(-0.0145216 -0.0046941 0)
(-0.0125853 -0.00444156 0)
(-0.0107594 -0.00415515 0)
(-0.00905438 -0.00383666 0)
(-0.007481 -0.00348868 0)
(-0.00604957 -0.00311443 0)
(-0.00476827 -0.002718 0)
(-0.00364377 -0.00230475 0)
(-0.0026809 -0.00188201 0)
(-0.00188047 -0.00145911 0)
(-0.00124136 -0.00104911 0)
(-0.000757222 -0.000669888 0)
(-0.000416102 -0.000343152 0)
(-0.00019588 -0.000103449 0)
(-6.64331e-05 2.52009e-05 0)
(-1.59896e-05 5.75183e-05 0)
(0.000183442 -0.00105747 0)
(0.000419247 -0.00116891 0)
(0.000555509 -0.000228763 0)
(0.000438562 0.000725629 0)
(0.000100234 0.00157003 0)
(-0.000431389 0.00232625 0)
(-0.00114487 0.00301076 0)
(-0.00204268 0.00362159 0)
(-0.00311848 0.00417424 0)
(-0.00436238 0.00465912 0)
(-0.0057787 0.00508961 0)
(-0.00734774 0.00546408 0)
(-0.00906787 0.00578939 0)
(-0.0109323 0.00606803 0)
(-0.0129211 0.00630646 0)
(-0.01503 0.00650936 0)
(-0.0172475 0.00667533 0)
(-0.0195552 0.00681833 0)
(-0.0219472 0.0069323 0)
(-0.0244067 0.00702864 0)
(-0.0269257 0.00710295 0)
(-0.0294933 0.00716513 0)
(-0.032091 0.00720392 0)
(-0.0347158 0.00723364 0)
(-0.0373577 0.00724814 0)
(-0.0400065 0.00724984 0)
(-0.0426538 0.00723966 0)
(-0.0452914 0.00721592 0)
(-0.0479124 0.00717809 0)
(-0.0505117 0.00712562 0)
(-0.0530844 0.00705917 0)
(-0.055626 0.00698002 0)
(-0.0581334 0.00688854 0)
(-0.0606029 0.00678621 0)
(-0.0630303 0.00667473 0)
(-0.0654126 0.00655485 0)
(-0.067748 0.00642792 0)
(-0.0700329 0.0062954 0)
(-0.0722643 0.00615869 0)
(-0.0744416 0.00601907 0)
(-0.0765635 0.00587629 0)
(-0.0786285 0.0057319 0)
(-0.0806351 0.00558807 0)
(-0.0825817 0.0054445 0)
(-0.0844683 0.00530177 0)
(-0.0862943 0.00516102 0)
(-0.0880576 0.0050216 0)
(-0.0897576 0.00488332 0)
(-0.0913956 0.00474543 0)
(-0.0929708 0.00460524 0)
(-0.0944835 0.00446126 0)
(-0.095936 0.00431384 0)
(-0.0973295 0.00416201 0)
(-0.0986652 0.00400454 0)
(-0.0999464 0.00384248 0)
(-0.101175 0.00367735 0)
(-0.102349 0.00350942 0)
(-0.103473 0.00333913 0)
(-0.104547 0.00316756 0)
(-0.105572 0.00299541 0)
(-0.106549 0.00282316 0)
(-0.107478 0.00265127 0)
(-0.108362 0.00247968 0)
(-0.109202 0.00230828 0)
(-0.109997 0.00213769 0)
(-0.11075 0.00196885 0)
(-0.111463 0.00180253 0)
(-0.112137 0.00163956 0)
(-0.112771 0.001481 0)
(-0.113367 0.00132777 0)
(-0.113926 0.00118065 0)
(-0.114447 0.00104039 0)
(-0.11493 0.000907532 0)
(-0.115376 0.000782047 0)
(-0.115785 0.000663416 0)
(-0.116157 0.000551121 0)
(-0.116492 0.000444828 0)
(-0.116788 0.000344106 0)
(-0.117047 0.000248158 0)
(-0.117268 0.000156001 0)
(-0.117453 6.68671e-05 0)
(-0.1176 -1.96759e-05 0)
(-0.117709 -0.000103936 0)
(-0.11778 -0.000186322 0)
(-0.117812 -0.00026737 0)
(-0.117806 -0.00034771 0)
(-0.117758 -0.000428166 0)
(-0.117669 -0.000509876 0)
(-0.117536 -0.000594265 0)
(-0.117358 -0.00068293 0)
(-0.117136 -0.000777533 0)
(-0.116867 -0.000879675 0)
(-0.116552 -0.000990644 0)
(-0.116189 -0.00111119 0)
(-0.115778 -0.00124156 0)
(-0.115316 -0.00138177 0)
(-0.114805 -0.00153168 0)
(-0.114242 -0.00169087 0)
(-0.113625 -0.00185849 0)
(-0.112953 -0.0020335 0)
(-0.112223 -0.00221503 0)
(-0.111434 -0.00240257 0)
(-0.110584 -0.00259576 0)
(-0.109671 -0.00279408 0)
(-0.108692 -0.00299676 0)
(-0.107646 -0.00320308 0)
(-0.106531 -0.00341249 0)
(-0.105345 -0.00362458 0)
(-0.104087 -0.00383877 0)
(-0.102755 -0.00405424 0)
(-0.101347 -0.00427008 0)
(-0.099862 -0.00448549 0)
(-0.098298 -0.00469991 0)
(-0.0966542 -0.00491298 0)
(-0.0949295 -0.00512445 0)
(-0.0931231 -0.0053342 0)
(-0.0912345 -0.00554231 0)
(-0.0892637 -0.00574893 0)
(-0.0872115 -0.00595405 0)
(-0.0850788 -0.00615733 0)
(-0.0828667 -0.00635813 0)
(-0.0805771 -0.00655555 0)
(-0.078212 -0.00674858 0)
(-0.0757745 -0.00693611 0)
(-0.0732674 -0.00711691 0)
(-0.070694 -0.00728951 0)
(-0.0680581 -0.00745237 0)
(-0.0653639 -0.00760401 0)
(-0.0626164 -0.00774318 0)
(-0.0598213 -0.00786875 0)
(-0.0569844 -0.00797957 0)
(-0.0541127 -0.0080744 0)
(-0.0512136 -0.00815185 0)
(-0.0482959 -0.00821026 0)
(-0.045369 -0.00824761 0)
(-0.0424426 -0.00826155 0)
(-0.0395268 -0.00824948 0)
(-0.0366319 -0.00820858 0)
(-0.0337687 -0.00813586 0)
(-0.0309487 -0.00802829 0)
(-0.0281842 -0.00788286 0)
(-0.025488 -0.00769675 0)
(-0.022872 -0.00746748 0)
(-0.0203479 -0.00719305 0)
(-0.0179273 -0.00687242 0)
(-0.0156217 -0.00650578 0)
(-0.0134429 -0.006094 0)
(-0.0114031 -0.00563907 0)
(-0.00951372 -0.00514441 0)
(-0.00778575 -0.00461402 0)
(-0.0062282 -0.00405324 0)
(-0.00484848 -0.00346979 0)
(-0.00365155 -0.00287319 0)
(-0.00263918 -0.00227607 0)
(-0.0018108 -0.00169683 0)
(-0.00116027 -0.00115655 0)
(-0.000677572 -0.000686848 0)
(-0.000340074 -0.000326402 0)
(-0.000123698 -0.000108475 0)
(-2.77331e-05 9.69618e-06 0)
(0.000179557 -0.00130127 0)
(0.000382079 -0.00139116 0)
(0.000450466 -0.000195515 0)
(0.000244081 0.000998816 0)
(-0.000211002 0.00206018 0)
(-0.00087627 0.00302129 0)
(-0.00175165 0.00389555 0)
(-0.00281996 0.00469839 0)
(-0.00408317 0.00542947 0)
(-0.00554413 0.00609457 0)
(-0.00717786 0.00669565 0)
(-0.0089927 0.00723463 0)
(-0.0109742 0.00771286 0)
(-0.0131084 0.00813667 0)
(-0.0153917 0.00850774 0)
(-0.0178067 0.00882826 0)
(-0.0203403 0.00910639 0)
(-0.0229847 0.00934369 0)
(-0.0257198 0.00953839 0)
(-0.0285344 0.0097066 0)
(-0.0314186 0.00983581 0)
(-0.0343579 0.0099418 0)
(-0.0373381 0.0100184 0)
(-0.0403465 0.0100695 0)
(-0.0433774 0.0100968 0)
(-0.0464164 0.0101015 0)
(-0.0494553 0.0100849 0)
(-0.0524854 0.0100482 0)
(-0.0554985 0.00999116 0)
(-0.0584882 0.00991407 0)
(-0.0614477 0.0098178 0)
(-0.0643721 0.00970327 0)
(-0.067257 0.00957181 0)
(-0.0700977 0.00942578 0)
(-0.0728902 0.00926735 0)
(-0.0756313 0.00909721 0)
(-0.0783178 0.00891722 0)
(-0.0809457 0.00872983 0)
(-0.0835122 0.00853567 0)
(-0.0860163 0.00833589 0)
(-0.0884563 0.00813197 0)
(-0.0908295 0.00792497 0)
(-0.0931349 0.00771711 0)
(-0.095372 0.00750913 0)
(-0.097539 0.00730033 0)
(-0.0996354 0.0070923 0)
(-0.10166 0.00688622 0)
(-0.103612 0.00668032 0)
(-0.105492 0.00647364 0)
(-0.107302 0.00626655 0)
(-0.109041 0.00605785 0)
(-0.110709 0.00584606 0)
(-0.11231 0.00563121 0)
(-0.113847 0.00541337 0)
(-0.115319 0.00519259 0)
(-0.116729 0.00496989 0)
(-0.11808 0.00474627 0)
(-0.119373 0.00452201 0)
(-0.120607 0.00429743 0)
(-0.121786 0.00407341 0)
(-0.122911 0.00385065 0)
(-0.123983 0.00362935 0)
(-0.125002 0.00340957 0)
(-0.125971 0.00319162 0)
(-0.126892 0.00297594 0)
(-0.127766 0.00276312 0)
(-0.128593 0.00255399 0)
(-0.129375 0.00234939 0)
(-0.130113 0.00214986 0)
(-0.130808 0.00195599 0)
(-0.131461 0.00176873 0)
(-0.132069 0.00158881 0)
(-0.132636 0.00141616 0)
(-0.13316 0.00125042 0)
(-0.133643 0.00109147 0)
(-0.134082 0.000939197 0)
(-0.134478 0.000793038 0)
(-0.134831 0.000652073 0)
(-0.13514 0.000515476 0)
(-0.135407 0.000382614 0)
(-0.13563 0.000252858 0)
(-0.13581 0.000125534 0)
(-0.135945 4.08781e-09 0)
(-0.136035 -0.000124357 0)
(-0.136079 -0.000248278 0)
(-0.136077 -0.000372606 0)
(-0.136028 -0.000498254 0)
(-0.135929 -0.000626274 0)
(-0.135779 -0.000758037 0)
(-0.135578 -0.00089524 0)
(-0.135324 -0.00103962 0)
(-0.135016 -0.00119259 0)
(-0.134654 -0.00135512 0)
(-0.134237 -0.00152786 0)
(-0.133762 -0.00171133 0)
(-0.133231 -0.00190591 0)
(-0.13264 -0.00211166 0)
(-0.13199 -0.00232815 0)
(-0.131277 -0.00255461 0)
(-0.1305 -0.00279026 0)
(-0.129657 -0.00303454 0)
(-0.128745 -0.00328709 0)
(-0.127764 -0.00354748 0)
(-0.126711 -0.00381508 0)
(-0.125582 -0.00408908 0)
(-0.124376 -0.00436876 0)
(-0.123092 -0.0046535 0)
(-0.121726 -0.0049427 0)
(-0.120277 -0.00523568 0)
(-0.118744 -0.0055316 0)
(-0.117124 -0.00582956 0)
(-0.115414 -0.00612873 0)
(-0.113615 -0.00642837 0)
(-0.111724 -0.00672787 0)
(-0.10974 -0.00702673 0)
(-0.107663 -0.00732458 0)
(-0.105492 -0.0076211 0)
(-0.103228 -0.00791589 0)
(-0.10087 -0.00820835 0)
(-0.0984193 -0.00849764 0)
(-0.0958782 -0.00878271 0)
(-0.0932483 -0.00906232 0)
(-0.0905322 -0.00933506 0)
(-0.087733 -0.00959934 0)
(-0.0848541 -0.00985334 0)
(-0.0818994 -0.0100951 0)
(-0.0788732 -0.0103227 0)
(-0.0757806 -0.0105341 0)