/*--------------------------------*- C++ -*----------------------------------*\
  =========                 |
  \\      /  F ield         | OpenFOAM: The Open Source CFD Toolbox
   \\    /   O peration     | Website:  https://openfoam.org
    \\  /    A nd           | Version:  7
     \\/     M anipulation  |
\*---------------------------------------------------------------------------*/
FoamFile
{
    version     2.0;
    format      ascii;
    class       surfaceScalarField;
    location    "0.45";
    object      phi;
}
// * * * * * * * * * * * * * * * * * * * * * * * * * * * * * * * * * * * * * //

dimensions      [0 3 -1 0 0 0 0];

internalField   nonuniform List<scalar> 
101920
(
-1.21579e-13
1.39991e-13
-6.29579e-13
5.09905e-13
-7.74594e-13
1.42569e-13
-7.06023e-13
-6.87983e-14
-3.77928e-13
-3.27197e-13
1.71047e-13
-5.48474e-13
8.99378e-13
-7.28519e-13
1.77477e-12
-8.77125e-13
2.77429e-12
-9.98437e-13
3.87307e-12
-1.1002e-12
5.05313e-12
-1.18206e-12
6.30127e-12
-1.24771e-12
7.60176e-12
-1.29962e-12
8.94189e-12
-1.3396e-12
1.03104e-11
-1.36814e-12
1.16965e-11
-1.38568e-12
1.30907e-11
-1.39486e-12
1.4487e-11
-1.39507e-12
1.58767e-11
-1.3876e-12
1.72513e-11
-1.37492e-12
1.86074e-11
-1.35463e-12
1.99378e-11
-1.33016e-12
2.12405e-11
-1.30098e-12
2.251e-11
-1.26802e-12
2.37414e-11
-1.23252e-12
2.49337e-11
-1.19278e-12
2.60835e-11
-1.15041e-12
2.71893e-11
-1.10572e-12
2.82503e-11
-1.05927e-12
2.92636e-11
-1.01284e-12
3.02288e-11
-9.65476e-13
3.11451e-11
-9.16776e-13
3.20117e-11
-8.68507e-13
3.28298e-11
-8.19917e-13
3.35997e-11
-7.7044e-13
3.43204e-11
-7.22304e-13
3.49933e-11
-6.75358e-13
3.56197e-11
-6.28219e-13
3.61994e-11
-5.81751e-13
3.67349e-11
-5.36663e-13
3.72284e-11
-4.92964e-13
3.76802e-11
-4.51046e-13
3.80915e-11
-4.10706e-13
3.84645e-11
-3.71739e-13
3.88007e-11
-3.34745e-13
3.91021e-11
-3.00262e-13
3.93706e-11
-2.67571e-13
3.96078e-11
-2.36717e-13
3.98157e-11
-2.08283e-13
3.99969e-11
-1.81763e-13
4.01535e-11
-1.56997e-13
4.02867e-11
-1.34308e-13
4.03982e-11
-1.13771e-13
4.04908e-11
-9.4721e-14
4.05666e-11
-7.65263e-14
4.06272e-11
-6.01389e-14
4.0675e-11
-4.6666e-14
4.07122e-11
-3.56912e-14
4.07397e-11
-2.66355e-14
4.07587e-11
-1.92261e-14
4.07715e-11
-1.29232e-14
4.07806e-11
-8.11333e-15
4.07867e-11
-5.78432e-15
4.07908e-11
-5.13126e-15
4.07947e-11
-4.87762e-15
4.07995e-11
-5.21571e-15
4.08068e-11
-6.95615e-15
4.08183e-11
-1.02547e-14
4.08351e-11
-1.47825e-14
4.08569e-11
-2.07845e-14
4.08844e-11
-2.83204e-14
4.09187e-11
-3.63368e-14
4.09606e-11
-4.3682e-14
4.10106e-11
-5.05699e-14
4.10689e-11
-5.78602e-14
4.11361e-11
-6.58266e-14
4.12126e-11
-7.45173e-14
4.12977e-11
-8.4079e-14
4.13914e-11
-9.40055e-14
4.1494e-11
-1.03248e-13
4.16053e-11
-1.11617e-13
4.17244e-11
-1.19695e-13
4.18512e-11
-1.27505e-13
4.19854e-11
-1.34526e-13
4.21257e-11
-1.40411e-13
4.2271e-11
-1.45394e-13
4.24208e-11
-1.49762e-13
4.25746e-11
-1.53292e-13
4.27316e-11
-1.5598e-13
4.28896e-11
-1.57754e-13
4.30472e-11
-1.58061e-13
4.32041e-11
-1.56755e-13
4.33587e-11
-1.53993e-13
4.35092e-11
-1.49914e-13
4.36537e-11
-1.44461e-13
4.37907e-11
-1.37241e-13
4.3919e-11
-1.28194e-13
4.40364e-11
-1.17409e-13
4.41411e-11
-1.04775e-13
4.42318e-11
-9.03538e-14
4.43064e-11
-7.39954e-14
4.43629e-11
-5.56257e-14
4.4399e-11
-3.57204e-14
4.44122e-11
-1.40814e-14
4.44018e-11
9.84883e-15
4.43661e-11
3.57934e-14
4.4302e-11
6.39417e-14
4.42081e-11
9.41369e-14
4.40821e-11
1.26051e-13
4.39222e-11
1.59955e-13
4.37271e-11
1.95616e-13
4.3494e-11
2.32702e-13
4.32209e-11
2.71782e-13
4.29071e-11
3.1304e-13
4.25505e-11
3.56034e-13
4.21496e-11
4.00526e-13
4.17035e-11
4.4615e-13
4.12107e-11
4.92738e-13
4.06694e-11
5.40817e-13
4.0079e-11
5.90337e-13
3.94379e-11
6.40674e-13
3.87453e-11
6.91819e-13
3.80016e-11
7.43552e-13
3.72057e-11
7.95456e-13
3.63569e-11
8.47794e-13
3.54562e-11
9.00308e-13
3.45038e-11
9.52187e-13
3.34997e-11
1.00353e-12
3.24454e-11
1.0545e-12
3.13414e-11
1.10432e-12
3.01888e-11
1.15257e-12
2.89897e-11
1.19923e-12
2.77465e-11
1.24364e-12
2.64609e-11
1.28531e-12
2.51361e-11
1.32424e-12
2.37761e-11
1.35985e-12
2.23843e-11
1.39168e-12
2.0965e-11
1.41968e-12
1.95239e-11
1.44277e-12
1.8065e-11
1.45966e-12
1.6594e-11
1.47033e-12
1.51186e-11
1.47474e-12
1.36466e-11
1.4718e-12
1.21856e-11
1.46049e-12
1.07455e-11
1.44013e-12
9.33669e-12
1.40958e-12
7.96925e-12
1.36778e-12
6.65502e-12
1.31421e-12
5.40792e-12
1.24785e-12
4.24161e-12
1.16706e-12
3.17065e-12
1.07078e-12
2.21236e-12
9.584e-13
1.38476e-12
8.28649e-13
7.04647e-13
6.80501e-13
1.88116e-13
5.15421e-13
-1.50864e-13
3.37877e-13
-3.06487e-13
1.55923e-13
-2.87383e-13
-1.56926e-14
-1.39747e-13
-1.38621e-13
-1.30306e-13
2.69663e-13
-1.27692e-13
2.8903e-13
4.90159e-13
3.79278e-13
5.39708e-14
9.36215e-13
-6.27255e-13
1.97275e-12
-1.36702e-12
3.48261e-12
-2.0565e-12
5.42199e-12
-2.66869e-12
7.74209e-12
-3.19674e-12
1.03942e-11
-3.64873e-12
1.33257e-11
-4.03033e-12
1.64917e-11
-4.34895e-12
1.9851e-11
-4.60883e-12
2.33648e-11
-4.81559e-12
2.70001e-11
-4.97515e-12
3.07242e-11
-5.09109e-12
3.45057e-11
-5.16971e-12
3.83212e-11
-5.21193e-12
4.21463e-11
-5.22099e-12
4.59583e-11
-5.2026e-12
4.97406e-11
-5.15727e-12
5.34719e-11
-5.0901e-12
5.71406e-11
-5.00116e-12
6.07325e-11
-4.89355e-12
6.42342e-11
-4.77107e-12
6.76382e-11
-4.6348e-12
7.09334e-11
-4.48775e-12
7.41117e-11
-4.33093e-12
7.71692e-11
-4.16419e-12
8.00997e-11
-3.99129e-12
8.28992e-11
-3.81319e-12
8.55665e-11
-3.63018e-12
8.80974e-11
-3.44617e-12
9.04909e-11
-3.26143e-12
9.27483e-11
-3.07484e-12
9.48684e-11
-2.889e-12
9.68532e-11
-2.70529e-12
9.87056e-11
-2.52375e-12
1.00426e-10
-2.34613e-12
1.02018e-10
-2.17297e-12
1.03485e-10
-2.00393e-12
1.04831e-10
-1.83996e-12
1.06059e-10
-1.68151e-12
1.07175e-10
-1.52842e-12
1.08183e-10
-1.38171e-12
1.09086e-10
-1.24188e-12
1.09892e-10
-1.10835e-12
1.10607e-10
-9.81892e-13
1.11233e-10
-8.63638e-13
1.11777e-10
-7.53218e-13
1.12246e-10
-6.49729e-13
1.12646e-10
-5.53505e-13
1.12981e-10
-4.66026e-13
1.13257e-10
-3.87278e-13
1.1348e-10
-3.16207e-13
1.13656e-10
-2.5261e-13
1.13789e-10
-1.96152e-13
1.13887e-10
-1.46319e-13
1.13955e-10
-1.03607e-13
1.13996e-10
-6.84513e-14
1.14017e-10
-4.00734e-14
1.14022e-10
-1.76972e-14
1.14015e-10
-1.54962e-15
1.14001e-10
8.27975e-15
1.13986e-10
1.24528e-14
1.13972e-10
1.10762e-14
1.13963e-10
3.90812e-15
1.13961e-10
-7.91436e-15
1.13972e-10
-2.28769e-14
1.13998e-10
-4.09663e-14
1.14041e-10
-6.29221e-14
1.14105e-10
-8.87616e-14
1.1419e-10
-1.17968e-13
1.14298e-10
-1.49893e-13
1.14431e-10
-1.83603e-13
1.14589e-10
-2.18098e-13
1.14775e-10
-2.52979e-13
1.14988e-10
-2.88617e-13
1.15228e-10
-3.25089e-13
1.15495e-10
-3.61496e-13
1.1579e-10
-3.97003e-13
1.16111e-10
-4.31621e-13
1.16457e-10
-4.65123e-13
1.16826e-10
-4.96408e-13
1.17218e-10
-5.24971e-13
1.17629e-10
-5.5114e-13
1.18057e-10
-5.74547e-13
1.18501e-10
-5.94257e-13
1.18957e-10
-6.09617e-13
1.19422e-10
-6.20723e-13
1.19893e-10
-6.27863e-13
1.20366e-10
-6.30288e-13
1.20837e-10
-6.27213e-13
1.21303e-10
-6.18684e-13
1.21758e-10
-6.04541e-13
1.22198e-10
-5.84311e-13
1.22619e-10
-5.57579e-13
1.23016e-10
-5.24294e-13
1.23384e-10
-4.84697e-13
1.23717e-10
-4.38264e-13
1.2401e-10
-3.84118e-13
1.24258e-10
-3.2215e-13
1.24455e-10
-2.52518e-13
1.24596e-10
-1.75696e-13
1.24675e-10
-9.19955e-14
1.24687e-10
-7.21142e-16
1.24625e-10
9.82331e-14
1.24484e-10
2.04637e-13
1.24258e-10
3.18975e-13
1.23942e-10
4.41116e-13
1.23531e-10
5.70636e-13
1.23018e-10
7.07545e-13
1.22399e-10
8.51365e-13
1.21669e-10
1.00184e-12
1.20822e-10
1.15923e-12
1.19855e-10
1.32295e-12
1.18761e-10
1.49234e-12
1.17539e-10
1.66754e-12
1.16184e-10
1.84806e-12
1.14692e-10
2.03295e-12
1.13061e-10
2.22195e-12
1.11287e-10
2.41438e-12
1.09368e-10
2.60946e-12
1.07303e-10
2.80711e-12
1.05092e-10
3.00646e-12
1.02732e-10
3.20625e-12
1.00225e-10
3.40614e-12
9.75712e-11
3.6053e-12
9.47732e-11
3.80206e-12
9.18326e-11
3.99555e-12
8.87527e-11
4.18488e-12
8.55371e-11
4.36827e-12
8.2191e-11
4.54467e-12
7.87214e-11
4.71336e-12
7.51352e-11
4.87219e-12
7.14403e-11
5.01907e-12
6.76471e-11
5.15298e-12
6.37665e-11
5.27236e-12
5.98105e-11
5.37523e-12
5.57937e-11
5.45967e-12
5.17314e-11
5.52302e-12
4.76402e-11
5.56224e-12
4.35395e-11
5.57528e-12
3.94506e-11
5.56036e-12
3.53961e-11
5.5144e-12
3.14015e-11
5.43389e-12
2.7495e-11
5.31619e-12
2.37063e-11
5.15809e-12
2.00668e-11
4.95535e-12
1.66113e-11
4.70447e-12
1.33764e-11
4.40269e-12
1.04004e-11
4.04687e-12
7.72306e-12
3.63464e-12
5.38501e-12
3.16582e-12
3.42549e-12
2.64145e-12
1.87828e-12
2.06536e-12
7.66702e-13
1.45057e-12
9.19166e-14
8.26645e-13
-1.8444e-13
2.47665e-13
-1.55022e-13
-1.86572e-13
-2.79424e-13
1.67583e-13
-2.97722e-13
7.54411e-13
-9.57862e-14
1.5953e-12
-7.85112e-13
2.94413e-12
-1.97408e-12
4.88651e-12
-3.3085e-12
7.44155e-12
-4.61185e-12
1.05827e-11
-5.81046e-12
1.42598e-11
-6.87706e-12
1.84179e-11
-7.80598e-12
2.29928e-11
-8.60442e-12
2.79245e-11
-9.27779e-12
3.31519e-11
-9.8348e-12
3.8619e-11
-1.02835e-11
4.42758e-11
-1.06306e-11
5.00718e-11
-1.08878e-11
5.59645e-11
-1.10609e-11
6.19123e-11
-1.11578e-11
6.78767e-11
-1.11857e-11
7.38261e-11
-1.11503e-11
7.97286e-11
-1.10594e-11
8.55588e-11
-1.09184e-11
9.12913e-11
-1.07322e-11
9.69028e-11
-1.0507e-11
1.02377e-10
-1.02459e-11
1.07697e-10
-9.95436e-12
1.12847e-10
-9.63808e-12
1.17818e-10
-9.29926e-12
1.22597e-10
-8.94279e-12
1.27176e-10
-8.57188e-12
1.3155e-10
-8.18782e-12
1.35713e-10
-7.7952e-12
1.39662e-10
-7.39754e-12
1.43396e-10
-6.99606e-12
1.46913e-10
-6.5939e-12
1.50214e-10
-6.19328e-12
1.53301e-10
-5.79492e-12
1.56177e-10
-5.4013e-12
1.58845e-10
-5.01498e-12
1.6131e-10
-4.63724e-12
1.63577e-10
-4.26957e-12
1.6565e-10
-3.91326e-12
1.67539e-10
-3.56833e-12
1.69249e-10
-3.23631e-12
1.70787e-10
-2.91887e-12
1.72162e-10
-2.61608e-12
1.73381e-10
-2.3278e-12
1.74455e-10
-2.0553e-12
1.7539e-10
-1.79987e-12
1.76196e-10
-1.56091e-12
1.76883e-10
-1.33811e-12
1.77459e-10
-1.13199e-12
1.77933e-10
-9.42782e-13
1.78316e-10
-7.70284e-13
1.78617e-10
-6.15005e-13
1.78843e-10
-4.77321e-13
1.79004e-10
-3.56169e-13
1.79109e-10
-2.50791e-13
1.79166e-10
-1.61213e-13
1.79184e-10
-8.67119e-14
1.79172e-10
-2.67971e-14
1.79137e-10
1.82288e-14
1.79084e-10
4.91472e-14
1.79023e-10
6.77564e-14
1.78961e-10
7.47651e-14
1.78904e-10
6.96278e-14
1.78857e-10
5.23211e-14
1.78827e-10
2.42518e-14
1.78818e-10
-1.3058e-14
1.78834e-10
-5.88109e-14
1.78881e-10
-1.12002e-13
1.78962e-10
-1.71387e-13
1.79081e-10
-2.36641e-13
1.7924e-10
-3.07738e-13
1.79442e-10
-3.83476e-13
1.79688e-10
-4.6233e-13
1.7998e-10
-5.43664e-13
1.80317e-10
-6.26908e-13
1.80702e-10
-7.1061e-13
1.81133e-10
-7.93278e-13
1.8161e-10
-8.74418e-13
1.82131e-10
-9.5375e-13
1.82695e-10
-1.03002e-12
1.833e-10
-1.10152e-12
1.83943e-10
-1.16749e-12
1.8462e-10
-1.22795e-12
1.85328e-10
-1.28209e-12
1.86063e-10
-1.32856e-12
1.8682e-10
-1.36645e-12
1.87593e-10
-1.39491e-12
1.88379e-10
-1.41337e-12
1.8917e-10
-1.42124e-12
1.89962e-10
-1.41767e-12
1.90745e-10
-1.40223e-12
1.91514e-10
-1.37423e-12
1.92263e-10
-1.33254e-12
1.92982e-10
-1.2766e-12
1.93664e-10
-1.20621e-12
1.94302e-10
-1.12122e-12
1.94885e-10
-1.02124e-12
1.95408e-10
-9.05322e-13
1.95859e-10
-7.73014e-13
1.9623e-10
-6.24351e-13
1.96512e-10
-4.5896e-13
1.96698e-10
-2.77029e-13
1.96776e-10
-7.86879e-14
1.96738e-10
1.36427e-13
1.96574e-10
3.68121e-13
1.96277e-10
6.16506e-13
1.95837e-10
8.81757e-13
1.95244e-10
1.16307e-12
1.9449e-10
1.46013e-12
1.93567e-10
1.77317e-12
1.92467e-10
2.10145e-12
1.91183e-10
2.44405e-12
1.89705e-10
2.80034e-12
1.88028e-10
3.16922e-12
1.86145e-10
3.55006e-12
1.8405e-10
3.94264e-12
1.81737e-10
4.34534e-12
1.79202e-10
4.75651e-12
1.7644e-10
5.17544e-12
1.73449e-10
5.60063e-12
1.70225e-10
6.03049e-12
1.66767e-10
6.4639e-12
1.63074e-10
6.89875e-12
1.59147e-10
7.33276e-12
1.54988e-10
7.76455e-12
1.50598e-10
8.19188e-12
1.45983e-10
8.61155e-12
1.41147e-10
9.02125e-12
1.36096e-10
9.41874e-12
1.3084e-10
9.80079e-12
1.25388e-10
1.01647e-11
1.19752e-10
1.05077e-11
1.13946e-10
1.08257e-11
1.07985e-10
1.11145e-11
1.01888e-10
1.13708e-11
9.56728e-11
1.15906e-11
8.93632e-11
1.17692e-11
8.29828e-11
1.19022e-11
7.65595e-11
1.19849e-11
7.01241e-11
1.20116e-11
6.37088e-11
1.19764e-11
5.73488e-11
1.18742e-11
5.10842e-11
1.16987e-11
4.49577e-11
1.14432e-11
3.90139e-11
1.11016e-11
3.33015e-11
1.06675e-11
2.78727e-11
1.0134e-11
2.27809e-11
9.49484e-12
1.80819e-11
8.74584e-12
1.38327e-11
7.88407e-12
1.00882e-11
6.90981e-12
6.89843e-12
5.82946e-12
4.30627e-12
4.65772e-12
2.34061e-12
3.42219e-12
1.00304e-12
2.17484e-12
2.49123e-13
1.00845e-12
-2.90685e-14
8.18241e-14
-3.07074e-13
3.05758e-13
-6.03255e-13
1.2344e-12
-1.0262e-12
2.73169e-12
-2.28061e-12
4.8924e-12
-4.13946e-12
7.77849e-12
-6.19387e-12
1.13951e-11
-8.22727e-12
1.57147e-11
-1.01288e-11
2.06871e-11
-1.18491e-11
2.6247e-11
-1.33702e-11
3.23287e-11
-1.46867e-11
3.88573e-11
-1.58074e-11
4.57626e-11
-1.67406e-11
5.29767e-11
-1.74962e-11
6.04307e-11
-1.80878e-11
6.80674e-11
-1.85256e-11
7.58296e-11
-1.88228e-11
8.36631e-11
-1.89921e-11
9.15203e-11
-1.90434e-11
9.93566e-11
-1.89881e-11
1.07132e-10
-1.8837e-11
1.14813e-10
-1.8598e-11
1.22365e-10
-1.82839e-11
1.2976e-10
-1.79015e-11
1.36972e-10
-1.74584e-11
1.43978e-10
-1.69634e-11
1.50762e-10
-1.64222e-11
1.57306e-10
-1.58428e-11
1.63596e-10
-1.52327e-11
1.69623e-10
-1.45959e-11
1.75375e-10
-1.39389e-11
1.80846e-10
-1.3267e-11
1.86033e-10
-1.25837e-11
1.90933e-10
-1.18944e-11
1.95543e-10
-1.1204e-11
1.99867e-10
-1.05155e-11
2.03905e-10
-9.83224e-12
2.07659e-10
-9.15759e-12
2.11137e-10
-8.49391e-12
2.14344e-10
-7.84462e-12
2.17286e-10
-7.21257e-12
2.19971e-10
-6.59902e-12
2.22407e-10
-6.0059e-12
2.24605e-10
-5.43516e-12
2.26575e-10
-4.88872e-12
2.28326e-10
-4.36739e-12
2.29871e-10
-3.87204e-12
2.31219e-10
-3.40453e-12
2.32385e-10
-2.96505e-12
2.3338e-10
-2.55391e-12
2.34216e-10
-2.17243e-12
2.34904e-10
-1.82072e-12
2.35458e-10
-1.49805e-12
2.35891e-10
-1.20437e-12
2.36214e-10
-9.39868e-13
2.36441e-10
-7.04374e-13
2.36583e-10
-4.97659e-13
2.36652e-10
-3.19538e-13
2.36659e-10
-1.68907e-13
2.36617e-10
-4.40962e-14
2.36536e-10
5.51461e-14
2.36426e-10
1.28464e-13
2.36298e-10
1.77366e-13
2.36162e-10
2.04047e-13
2.36027e-10
2.09478e-13
2.359e-10
1.94385e-13
2.35792e-10
1.60116e-13
2.3571e-10
1.07965e-13
2.3566e-10
3.88943e-14
2.35649e-10
-4.58337e-14
2.35682e-10
-1.44249e-13
2.35765e-10
-2.5432e-13
2.35901e-10
-3.74671e-13
2.36096e-10
-5.03919e-13
2.36353e-10
-6.40199e-13
2.36674e-10
-7.82201e-13
2.3706e-10
-9.29072e-13
2.37511e-10
-1.07895e-12
2.3803e-10
-1.22935e-12
2.38616e-10
-1.3786e-12
2.39267e-10
-1.52569e-12
2.39982e-10
-1.66906e-12
2.40759e-10
-1.80668e-12
2.41595e-10
-1.93685e-12
2.42484e-10
-2.05807e-12
2.43424e-10
-2.16888e-12
2.4441e-10
-2.26784e-12
2.45436e-10
-2.35362e-12
2.46494e-10
-2.42509e-12
2.47579e-10
-2.48049e-12
2.48684e-10
-2.51795e-12
2.498e-10
-2.53665e-12
2.50918e-10
-2.53573e-12
2.5203e-10
-2.51393e-12
2.53126e-10
-2.46997e-12
2.54196e-10
-2.40245e-12
2.5523e-10
-2.31051e-12
2.56217e-10
-2.1936e-12
2.57146e-10
-2.05059e-12
2.58007e-10
-1.88067e-12
2.58786e-10
-1.68336e-12
2.59472e-10
-1.45812e-12
2.60053e-10
-1.20478e-12
2.60516e-10
-9.22657e-13
2.60851e-10
-6.1122e-13
2.61043e-10
-2.70935e-13
2.6108e-10
9.83791e-14
2.6095e-10
4.97171e-13
2.60642e-10
9.25057e-13
2.60142e-10
1.38164e-12
2.59439e-10
1.86631e-12
2.58521e-10
2.37818e-12
2.57377e-10
2.91718e-12
2.55995e-10
3.48289e-12
2.54366e-10
4.07354e-12
2.52478e-10
4.68771e-12
2.50323e-10
5.32433e-12
2.47892e-10
5.98157e-12
2.45176e-10
6.65804e-12
2.42168e-10
7.35232e-12
2.38863e-10
8.06174e-12
2.35253e-10
8.7841e-12
2.31336e-10
9.51754e-12
2.27108e-10
1.02591e-11
2.22566e-10
1.10057e-11
2.17709e-10
1.17549e-11
2.1254e-10
1.2503e-11
2.07059e-10
1.3246e-11
2.01269e-10
1.39807e-11
1.95178e-10
1.47027e-11
1.88793e-10
1.54073e-11
1.82121e-10
1.60902e-11
1.75175e-10
1.67468e-11
1.67969e-10
1.73715e-11
1.60517e-10
1.79586e-11
1.52838e-10
1.8503e-11
1.44955e-10
1.89981e-11
1.3689e-10
1.94363e-11
1.2867e-10
1.98111e-11
1.20324e-10
2.01152e-11
1.11886e-10
2.03404e-11
1.03391e-10
2.04789e-11
9.48805e-11
2.05224e-11
8.63969e-11
2.04611e-11
7.79863e-11
2.0285e-11
6.96999e-11
1.99845e-11
6.15935e-11
1.95501e-11
5.37246e-11
1.89708e-11
4.61543e-11
1.82366e-11
3.89483e-11
1.73388e-11
3.21741e-11
1.62692e-11
2.58994e-11
1.50209e-11
2.01931e-11
1.35909e-11
1.51213e-11
1.19824e-11
1.07426e-11
1.02072e-11
7.10425e-12
8.29123e-12
4.23842e-12
6.28228e-12
2.15403e-12
4.25947e-12
8.2028e-13
2.34883e-12
1.45763e-13
7.53229e-13
-1.61603e-13
4.09996e-13
-1.01207e-12
1.71827e-12
-2.33752e-12
3.84602e-12
-4.40748e-12
6.80666e-12
-7.09909e-12
1.06148e-11
-1.00053e-11
1.52623e-11
-1.28745e-11
2.07099e-11
-1.55757e-11
2.68995e-11
-1.80391e-11
3.37633e-11
-2.02327e-11
4.12224e-11
-2.21476e-11
4.91985e-11
-2.37854e-11
5.76139e-11
-2.51531e-11
6.63863e-11
-2.62685e-11
7.54415e-11
-2.71435e-11
8.47101e-11
-2.77937e-11
9.41237e-11
-2.82372e-11
1.03621e-10
-2.84891e-11
1.13145e-10
-2.85666e-11
1.22642e-10
-2.84858e-11
1.32064e-10
-2.8259e-11
1.41368e-10
-2.79031e-11
1.50515e-10
-2.74309e-11
1.5947e-10
-2.68553e-11
1.68201e-10
-2.619e-11
1.76683e-10
-2.54448e-11
1.84891e-10
-2.46306e-11
1.92805e-10
-2.37587e-11
2.00409e-10
-2.28373e-11
2.0769e-10
-2.1876e-11
2.14634e-10
-2.08844e-11
2.21235e-10
-1.98689e-11
2.27488e-10
-1.88366e-11
2.33387e-10
-1.77952e-11
2.38932e-10
-1.67501e-11
2.44125e-10
-1.57074e-11
2.48966e-10
-1.46734e-11
2.53461e-10
-1.3652e-11
2.57616e-10
-1.26479e-11
2.61436e-10
-1.16654e-11
2.64932e-10
-1.07082e-11
2.68113e-10
-9.77913e-12
2.70989e-10
-8.88172e-12
2.73571e-10
-8.01871e-12
2.75874e-10
-7.19165e-12
2.77909e-10
-6.40275e-12
2.79691e-10
-5.65466e-12
2.81233e-10
-4.94838e-12
2.82551e-10
-4.28404e-12
2.8366e-10
-3.66323e-12
2.84574e-10
-3.08724e-12
2.85311e-10
-2.55614e-12
2.85884e-10
-2.07029e-12
2.8631e-10
-1.62978e-12
2.86603e-10
-1.23364e-12
2.8678e-10
-8.81314e-13
2.86855e-10
-5.73023e-13
2.86843e-10
-3.0812e-13
2.8676e-10
-8.49984e-14
2.86618e-10
9.76395e-14
2.86431e-10
2.40689e-13
2.86213e-10
3.45391e-13
2.85978e-10
4.13571e-13
2.85737e-10
4.46721e-13
2.85501e-10
4.46092e-13
2.85281e-10
4.13895e-13
2.85088e-10
3.52732e-13
2.84931e-10
2.6443e-13
2.84818e-10
1.50732e-13
2.84759e-10
1.3882e-14
2.8476e-10
-1.43993e-13
2.84828e-10
-3.20837e-13
2.84967e-10
-5.14023e-13
2.85184e-10
-7.20604e-13
2.85482e-10
-9.38084e-13
2.85864e-10
-1.16459e-12
2.86332e-10
-1.39797e-12
2.86888e-10
-1.63517e-12
2.87533e-10
-1.87335e-12
2.88265e-10
-2.11052e-12
2.89082e-10
-2.34433e-12
2.89985e-10
-2.57183e-12
2.90969e-10
-2.79042e-12
2.92031e-10
-2.9982e-12
2.93165e-10
-3.19278e-12
2.94367e-10
-3.37125e-12
2.9563e-10
-3.5313e-12
2.96947e-10
-3.67106e-12
2.98311e-10
-3.78862e-12
2.99711e-10
-3.88162e-12
3.01141e-10
-3.94746e-12
3.02589e-10
-3.98449e-12
3.04044e-10
-3.99138e-12
3.05496e-10
-3.96589e-12
3.06932e-10
-3.906e-12
3.08341e-10
-3.81026e-12
3.09708e-10
-3.67743e-12
3.11022e-10
-3.50644e-12
3.12267e-10
-3.29563e-12
3.1343e-10
-3.04332e-12
3.14496e-10
-2.74899e-12
3.1545e-10
-2.412e-12
3.16277e-10
-2.03156e-12
3.16962e-10
-1.60723e-12
3.17489e-10
-1.13839e-12
3.17843e-10
-6.24936e-13
3.18008e-10
-6.69963e-14
3.17969e-10
5.35938e-13
3.1771e-10
1.1836e-12
3.17217e-10
1.87485e-12
3.16474e-10
2.60907e-12
3.15467e-10
3.38555e-12
3.14182e-10
4.203e-12
3.12605e-10
5.06033e-12
3.10722e-10
5.95598e-12
3.08521e-10
6.88764e-12
3.05991e-10
7.85359e-12
3.03121e-10
8.8516e-12
2.99901e-10
9.87855e-12
2.9632e-10
1.0932e-11
2.92372e-10
1.20091e-11
2.8805e-10
1.3106e-11
2.83349e-10
1.4219e-11
2.78264e-10
1.53443e-11
2.72793e-10
1.64773e-11
2.66934e-10
1.76133e-11
2.60689e-10
1.87476e-11
2.54062e-10
1.98744e-11
2.47055e-10
2.09874e-11
2.39676e-10
2.20806e-11
2.31935e-10
2.31481e-11
2.23843e-10
2.41823e-11
2.15414e-10
2.51758e-11
2.06665e-10
2.6121e-11
1.97615e-10
2.70089e-11
1.88287e-10
2.78304e-11
1.78707e-10
2.85769e-11
1.68905e-10
2.92384e-11
1.58912e-10
2.98035e-11
1.48766e-10
3.02614e-11
1.38506e-10
3.06009e-11
1.28177e-10
3.08095e-11
1.17825e-10
3.08742e-11
1.07505e-10
3.07821e-11
9.72702e-11
3.05193e-11
8.7183e-11
3.00714e-11
7.73081e-11
2.94242e-11
6.77139e-11
2.85642e-11
5.84727e-11
2.74776e-11
4.966e-11
2.61514e-11
4.13527e-11
2.45759e-11
3.36284e-11
2.27447e-11
2.65649e-11
2.06554e-11
2.0236e-11
1.83133e-11
1.47082e-11
1.57369e-11
1.00367e-11
1.29633e-11
6.25956e-12
1.00564e-11
3.39507e-12
7.11983e-12
1.43706e-12
4.30937e-12
3.31378e-13
1.85891e-12
1.69669e-13
5.35029e-13
-1.54662e-12
2.21788e-12
-4.01828e-12
4.94078e-12
-7.13087e-12
8.66305e-12
-1.08199e-11
1.33566e-11
-1.4698e-11
1.89833e-11
-1.85038e-11
2.54933e-11
-2.2086e-11
3.2819e-11
-2.53643e-11
4.08833e-11
-2.82965e-11
4.96017e-11
-3.08668e-11
5.88903e-11
-3.30718e-11
6.86582e-11
-3.49229e-11
7.8823e-11
-3.64331e-11
8.93008e-11
-3.76207e-11
1.00012e-10
-3.85058e-11
1.10882e-10
-3.91078e-11
1.21842e-10
-3.9449e-11
1.32825e-10
-3.95512e-11
1.43775e-10
-3.94334e-11
1.54633e-10
-3.91177e-11
1.65352e-10
-3.86222e-11
1.75886e-10
-3.79649e-11
1.86194e-10
-3.71647e-11
1.96242e-10
-3.62376e-11
2.05999e-10
-3.51997e-11
2.15435e-10
-3.4067e-11
2.24528e-10
-3.28521e-11
2.3326e-10
-3.15683e-11
2.41612e-10
-3.02291e-11
2.49573e-10
-2.88455e-11
2.57134e-10
-2.74285e-11
2.64286e-10
-2.5989e-11
2.71027e-10
-2.45358e-11
2.77354e-10
-2.30774e-11
2.83267e-10
-2.16222e-11
2.88772e-10
-2.01779e-11
2.93871e-10
-1.87516e-11
2.98572e-10
-1.73494e-11
3.02883e-10
-1.59774e-11
3.06815e-10
-1.464e-11
3.10379e-10
-1.33425e-11
3.13587e-10
-1.20898e-11
3.16452e-10
-1.08848e-11
3.18991e-10
-9.73015e-12
3.21219e-10
-8.62986e-12
3.2315e-10
-7.5867e-12
3.24804e-10
-6.60172e-12
3.26197e-10
-5.67698e-12
3.27347e-10
-4.81391e-12
3.28272e-10
-4.01295e-12
3.2899e-10
-3.27491e-12
3.2952e-10
-2.60059e-12
3.29881e-10
-1.99e-12
3.3009e-10
-1.44237e-12
3.30166e-10
-9.57274e-13
3.30126e-10
-5.34048e-13
3.29989e-10
-1.71085e-13
3.29772e-10
1.32837e-13
3.29492e-10
3.78523e-13
3.29163e-10
5.67988e-13
3.28804e-10
7.04047e-13
3.28428e-10
7.88867e-13
3.28051e-10
8.24068e-13
3.27686e-10
8.11748e-13
3.27346e-10
7.54895e-13
3.27043e-10
6.5649e-13
3.26788e-10
5.19098e-13
3.26592e-10
3.45902e-13
3.26465e-10
1.40516e-13
3.26416e-10
-9.42771e-14
3.26451e-10
-3.55864e-13
3.26577e-10
-6.40424e-13
3.26802e-10
-9.44019e-13
3.27128e-10
-1.2637e-12
3.27559e-10
-1.59639e-12
3.28099e-10
-1.93818e-12
3.28749e-10
-2.285e-12
3.29509e-10
-2.63355e-12
3.3038e-10
-2.98094e-12
3.31358e-10
-3.32344e-12
3.32443e-10
-3.65692e-12
3.33631e-10
-3.97789e-12
3.34916e-10
-4.28339e-12
3.36293e-10
-4.57018e-12
3.37757e-10
-4.83456e-12
3.39298e-10
-5.07322e-12
3.4091e-10
-5.28313e-12
3.42582e-10
-5.46105e-12
3.44304e-10
-5.60403e-12
3.46066e-10
-5.70914e-12
3.47855e-10
-5.77366e-12
3.49659e-10
-5.79522e-12
3.51464e-10
-5.77092e-12
3.53256e-10
-5.69791e-12
3.55021e-10
-5.57435e-12
3.56742e-10
-5.39833e-12
3.58404e-10
-5.16789e-12
3.59991e-10
-4.88135e-12
3.61485e-10
-4.53676e-12
3.6287e-10
-4.13278e-12
3.64126e-10
-3.66846e-12
3.65237e-10
-3.1425e-12
3.66184e-10
-2.55428e-12
3.66949e-10
-1.90354e-12
3.67513e-10
-1.18956e-12
3.67858e-10
-4.12204e-13
3.67966e-10
4.28219e-13
3.67818e-10
1.33139e-12
3.67397e-10
2.29628e-12
3.66684e-10
3.32169e-12
3.65662e-10
4.40691e-12
3.64316e-10
5.55025e-12
3.62627e-10
6.74912e-12
3.60581e-10
8.00157e-12
3.58163e-10
9.30523e-12
3.55359e-10
1.0657e-11
3.52156e-10
1.20537e-11
3.48542e-10
1.34918e-11
3.44506e-10
1.49668e-11
3.4004e-10
1.64747e-11
3.35135e-10
1.80108e-11
3.29785e-10
1.95693e-11
3.23985e-10
2.11444e-11
3.17733e-10
2.27303e-11
3.11026e-10
2.43203e-11
3.03866e-10
2.59069e-11
2.96257e-10
2.7483e-11
2.88204e-10
2.904e-11
2.79716e-10
3.05687e-11
2.70803e-10
3.20606e-11
2.61479e-10
3.35063e-11
2.5176e-10
3.48946e-11
2.41666e-10
3.62144e-11
2.3122e-10
3.74542e-11
2.20449e-10
3.86015e-11
2.09384e-10
3.96428e-11
1.98056e-10
4.05648e-11
1.86506e-10
4.13535e-11
1.74774e-10
4.19931e-11
1.62909e-10
4.24675e-11
1.50958e-10
4.27605e-11
1.38979e-10
4.28546e-11
1.2703e-10
4.27316e-11
1.15175e-10
4.23734e-11
1.03484e-10
4.1762e-11
9.20293e-11
4.08788e-11
8.08875e-11
3.97053e-11
7.01393e-11
3.82249e-11
5.98691e-11
3.64224e-11
5.01617e-11
3.42848e-11
4.11013e-11
3.18049e-11
3.27724e-11
2.89829e-11
2.52566e-11
2.58286e-11
1.8628e-11
2.23662e-11
1.29511e-11
1.86417e-11
8.27601e-12
1.47322e-11
4.63485e-12
1.07581e-11
2.0485e-12
6.89577e-12
5.09726e-13
3.39852e-12
6.799e-13
6.69732e-13
-2.21655e-12
2.70969e-12
-6.05852e-12
5.99171e-12
-1.04139e-11
1.04278e-11
-1.52551e-11
1.59508e-11
-2.022e-11
2.24977e-11
-2.50504e-11
2.99972e-11
-2.95876e-11
3.83729e-11
-3.37408e-11
4.75382e-11
-3.74627e-11
5.74036e-11
-4.07303e-11
6.78741e-11
-4.35427e-11
7.88564e-11
-4.59068e-11
9.0261e-11
-4.78374e-11
1.01997e-10
-4.9357e-11
1.1398e-10
-5.04881e-11
1.26129e-10
-5.12563e-11
1.38367e-10
-5.16879e-11
1.50624e-10
-5.18078e-11
1.62834e-10
-5.16433e-11
1.74936e-10
-5.12202e-11
1.86877e-10
-5.0562e-11
1.98605e-10
-4.96936e-11
2.10076e-10
-4.86365e-11
2.21251e-10
-4.74125e-11
2.32094e-10
-4.60435e-11
2.42575e-10
-4.45481e-11
2.52668e-10
-4.29444e-11
2.6235e-10
-4.1251e-11
2.71604e-10
-3.94834e-11
2.80415e-10
-3.76566e-11
2.88772e-10
-3.57858e-11
2.96667e-10
-3.38844e-11
3.04097e-10
-3.19648e-11
3.11058e-10
-3.00386e-11
3.17552e-10
-2.81167e-11
3.23583e-10
-2.62086e-11
3.29156e-10
-2.43242e-11
3.34278e-10
-2.24722e-11
3.3896e-10
-2.06594e-11
3.43213e-10
-1.88929e-11
3.47049e-10
-1.71797e-11
3.50485e-10
-1.55253e-11
3.53534e-10
-1.3934e-11
3.56214e-10
-1.24108e-11
3.58543e-10
-1.09598e-11
3.60539e-10
-9.58358e-12
3.62223e-10
-8.28505e-12
3.63614e-10
-7.06739e-12
3.64731e-10
-5.93169e-12
3.65598e-10
-4.87905e-12
3.66233e-10
-3.91078e-12
3.66658e-10
-3.02689e-12
3.66896e-10
-2.22727e-12
3.66966e-10
-1.51214e-12
3.66889e-10
-8.8098e-13
3.66687e-10
-3.32069e-13
3.66379e-10
1.3667e-13
3.65986e-10
5.26394e-13
3.65526e-10
8.38344e-13
3.65019e-10
1.07537e-12
3.64482e-10
1.24075e-12
3.63934e-10
1.33702e-12
3.6339e-10
1.36706e-12
3.62867e-10
1.33438e-12
3.6238e-10
1.24245e-12
3.61942e-10
1.09467e-12
3.61566e-10
8.94747e-13
3.61266e-10
6.46947e-13
3.61051e-10
3.55517e-13
3.60932e-10
2.45039e-14
3.60917e-10
-3.41684e-13
3.61015e-10
-7.38143e-13
3.61232e-10
-1.16046e-12
3.61573e-10
-1.60473e-12
3.62042e-10
-2.06609e-12
3.62644e-10
-2.53917e-12
3.63378e-10
-3.01931e-12
3.64246e-10
-3.50212e-12
3.65248e-10
-3.98301e-12
3.66382e-10
-4.45709e-12
3.67645e-10
-4.91952e-12
3.69033e-10
-5.36563e-12
3.70539e-10
-5.79071e-12
3.72159e-10
-6.19027e-12
3.73886e-10
-6.56013e-12
3.75708e-10
-6.89601e-12
3.77618e-10
-7.19346e-12
3.79604e-10
-7.44785e-12
3.81656e-10
-7.65523e-12
3.83759e-10
-7.81227e-12
3.859e-10
-7.91516e-12
3.88066e-10
-7.96006e-12
3.90239e-10
-7.94354e-12
3.92404e-10
-7.86229e-12
3.94544e-10
-7.71357e-12
3.9664e-10
-7.49474e-12
3.98675e-10
-7.20274e-12
4.00631e-10
-6.83544e-12
4.02486e-10
-6.39103e-12
4.0422e-10
-5.86731e-12
4.05815e-10
-5.26268e-12
4.07248e-10
-4.57586e-12
4.08499e-10
-3.80573e-12
4.09547e-10
-2.95185e-12
4.10371e-10
-2.01362e-12
4.10949e-10
-9.90427e-13
4.11261e-10
1.17032e-13
4.11284e-10
1.30768e-12
4.10999e-10
2.58085e-12
4.10386e-10
3.93514e-12
4.09424e-10
5.36876e-12
4.08094e-10
6.87992e-12
4.06377e-10
8.46557e-12
4.04256e-10
1.01223e-11
4.01713e-10
1.18472e-11
3.98733e-10
1.36365e-11
3.953e-10
1.54855e-11
3.91402e-10
1.73894e-11
3.87025e-10
1.9343e-11
3.8216e-10
2.13399e-11
3.76797e-10
2.33739e-11
3.70928e-10
2.54378e-11
3.64549e-10
2.75237e-11
3.57656e-10
2.96233e-11
3.50247e-10
3.17284e-11
3.42325e-10
3.38291e-11
3.33892e-10
3.59148e-11
3.24955e-10
3.79754e-11
3.15525e-10
3.99992e-11
3.05612e-10
4.19735e-11
2.95233e-10
4.38856e-11
2.84405e-10
4.57219e-11
2.73153e-10
4.74673e-11
2.615e-10
4.91064e-11
2.49477e-10
5.06233e-11
2.37119e-10
5.20009e-11
2.24464e-10
5.32207e-11
2.11552e-10
5.42641e-11
1.98434e-10
5.51121e-11
1.85159e-10
5.57436e-11
1.71783e-10
5.61368e-11
1.58369e-10
5.62696e-11
1.44981e-10
5.61198e-11
1.3169e-10
5.56643e-11
1.18571e-10
5.48799e-11
1.05705e-10
5.37442e-11
9.31755e-11
5.22352e-11
8.10686e-11
5.03319e-11
6.94752e-11
4.80164e-11
5.8487e-11
4.52745e-11
4.81954e-11
4.20981e-11
3.86908e-11
3.84879e-11
3.0061e-11
3.44572e-11
2.23886e-11
3.00371e-11
1.57495e-11
2.52809e-11
1.02095e-11
2.02746e-11
5.8196e-12
1.51478e-11
2.62819e-12
1.00869e-11
6.74705e-13
5.35273e-12
1.3553e-12
8.0012e-13
-3.01855e-12
3.17781e-12
-8.43496e-12
6.97593e-12
-1.42149e-11
1.20702e-11
-2.03496e-11
1.83596e-11
-2.65102e-11
2.57562e-11
-3.24458e-11
3.41692e-11
-3.80009e-11
4.3507e-11
-4.30808e-11
5.36772e-11
-4.7631e-11
6.45782e-11
-5.16315e-11
7.61115e-11
-5.50764e-11
8.81791e-11
-5.79738e-11
1.00682e-10
-6.0342e-11
1.13529e-10
-6.22033e-11
1.26627e-10
-6.3586e-11
1.39891e-10
-6.45201e-11
1.53239e-10
-6.50361e-11
1.66596e-10
-6.51652e-11
1.79892e-10
-6.49395e-11
1.93061e-10
-6.43892e-11
2.06045e-10
-6.35456e-11
2.18789e-10
-6.24372e-11
2.31246e-10
-6.10921e-11
2.4337e-10
-5.9538e-11
2.55126e-10
-5.77997e-11
2.6648e-10
-5.59013e-11
2.77402e-10
-5.3867e-11
2.87869e-10
-5.17185e-11
2.97862e-10
-4.94759e-11
3.07364e-10
-4.71589e-11
3.16364e-10
-4.47859e-11
3.24853e-10
-4.23735e-11
3.32826e-10
-3.99378e-11
3.40281e-10
-3.74942e-11
3.4722e-10
-3.50557e-11
3.53646e-10
-3.2635e-11
3.59565e-10
-3.02446e-11
3.64988e-10
-2.78948e-11
3.69924e-10
-2.5595e-11
3.74386e-10
-2.33553e-11
3.78388e-10
-2.11832e-11
3.81949e-10
-1.90851e-11
3.85083e-10
-1.70684e-11
3.87811e-10
-1.51393e-11
3.90153e-10
-1.3302e-11
3.9213e-10
-1.15603e-11
3.93763e-10
-9.9185e-12
3.95074e-10
-8.37935e-12
3.96088e-10
-6.94496e-12
3.96827e-10
-5.61762e-12
3.97314e-10
-4.39826e-12
3.97574e-10
-3.28676e-12
3.9763e-10
-2.28344e-12
3.97506e-10
-1.38842e-12
3.97225e-10
-6.00489e-13
3.96811e-10
8.20634e-14
3.96287e-10
6.61048e-13
3.95673e-10
1.13857e-12
3.94994e-10
1.51717e-12
3.9427e-10
1.80008e-12
3.93521e-10
1.99061e-12
3.92766e-10
2.092e-12
3.92024e-10
2.10839e-12
3.91314e-10
2.04435e-12
3.90653e-10
1.90414e-12
3.90054e-10
1.69238e-12
3.89535e-10
1.41425e-12
3.89108e-10
1.07464e-12
3.88785e-10
6.78404e-13
3.88578e-10
2.31303e-13
3.88497e-10
-2.60457e-13
3.8855e-10
-7.91214e-13
3.88745e-10
-1.35567e-12
3.89088e-10
-1.9481e-12
3.89584e-10
-2.56194e-12
3.90236e-10
-3.19085e-12
3.91047e-10
-3.82936e-12
3.92016e-10
-4.47153e-12
3.93143e-10
-5.11072e-12
3.94427e-10
-5.74086e-12
3.95865e-10
-6.35634e-12
3.9745e-10
-6.95121e-12
3.99178e-10
-7.51906e-12