/*--------------------------------*- C++ -*----------------------------------*\
  =========                 |
  \\      /  F ield         | OpenFOAM: The Open Source CFD Toolbox
   \\    /   O peration     | Website:  https://openfoam.org
    \\  /    A nd           | Version:  7
     \\/     M anipulation  |
\*---------------------------------------------------------------------------*/
FoamFile
{
    version     2.0;
    format      ascii;
    class       volVectorField;
    location    "0.45";
    object      U;
}
// * * * * * * * * * * * * * * * * * * * * * * * * * * * * * * * * * * * * * //

dimensions      [0 1 -1 0 0 0 0];

internalField   nonuniform List<vector> 
51200
(
(5.27236e-08 7.60684e-08 0)
(-5.21108e-08 1.06701e-07 0)
(-8.6897e-08 4.6492e-08 0)
(-1.36201e-07 1.80675e-08 0)
(-9.8998e-08 -4.74647e-09 0)
(-2.61268e-08 -2.13953e-08 0)
(7.82576e-08 -3.29569e-08 0)
(2.08051e-07 -4.19766e-08 0)
(3.59056e-07 -4.85081e-08 0)
(5.2797e-07 -5.3775e-08 0)
(7.10796e-07 -5.79573e-08 0)
(9.05845e-07 -6.10174e-08 0)
(1.11029e-06 -6.35268e-08 0)
(1.3219e-06 -6.54174e-08 0)
(1.53917e-06 -6.65423e-08 0)
(1.75988e-06 -6.72772e-08 0)
(1.98258e-06 -6.76883e-08 0)
(2.20629e-06 -6.75288e-08 0)
(2.42941e-06 -6.71238e-08 0)
(2.6507e-06 -6.6567e-08 0)
(2.86948e-06 -6.54622e-08 0)
(3.08462e-06 -6.42698e-08 0)
(3.29534e-06 -6.28826e-08 0)
(3.50136e-06 -6.11618e-08 0)
(3.70159e-06 -5.92969e-08 0)
(3.89547e-06 -5.73371e-08 0)
(4.08297e-06 -5.52765e-08 0)
(4.26357e-06 -5.30625e-08 0)
(4.43694e-06 -5.08212e-08 0)
(4.6029e-06 -4.86536e-08 0)
(4.76124e-06 -4.6387e-08 0)
(4.91181e-06 -4.40503e-08 0)
(5.05442e-06 -4.18631e-08 0)
(5.18918e-06 -3.96778e-08 0)
(5.31624e-06 -3.7326e-08 0)
(5.43547e-06 -3.49993e-08 0)
(5.54689e-06 -3.27672e-08 0)
(5.65077e-06 -3.05025e-08 0)
(5.74726e-06 -2.8237e-08 0)
(5.83645e-06 -2.60812e-08 0)
(5.9187e-06 -2.40695e-08 0)
(5.99425e-06 -2.21565e-08 0)
(6.06326e-06 -2.02483e-08 0)
(6.12595e-06 -1.83617e-08 0)
(6.1826e-06 -1.66017e-08 0)
(6.23351e-06 -1.4992e-08 0)
(6.27905e-06 -1.34355e-08 0)
(6.31946e-06 -1.19465e-08 0)
(6.35497e-06 -1.06221e-08 0)
(6.38599e-06 -9.43102e-09 0)
(6.41295e-06 -8.28979e-09 0)
(6.43608e-06 -7.18931e-09 0)
(6.45556e-06 -6.19468e-09 0)
(6.47178e-06 -5.297e-09 0)
(6.48517e-06 -4.42041e-09 0)
(6.49604e-06 -3.60359e-09 0)
(6.50468e-06 -2.9323e-09 0)
(6.5114e-06 -2.39822e-09 0)
(6.51647e-06 -1.96336e-09 0)
(6.52011e-06 -1.58845e-09 0)
(6.52262e-06 -1.23762e-09 0)
(6.52432e-06 -9.739e-10 0)
(6.52545e-06 -8.74718e-10 0)
(6.52619e-06 -8.61126e-10 0)
(6.52678e-06 -8.05254e-10 0)
(6.52746e-06 -7.27714e-10 0)
(6.52839e-06 -7.26616e-10 0)
(6.52983e-06 -8.34309e-10 0)
(6.53204e-06 -1.02999e-09 0)
(6.53512e-06 -1.30333e-09 0)
(6.53906e-06 -1.65116e-09 0)
(6.54397e-06 -2.01397e-09 0)
(6.55002e-06 -2.31051e-09 0)
(6.55733e-06 -2.5439e-09 0)
(6.56599e-06 -2.77965e-09 0)
(6.57605e-06 -3.05947e-09 0)
(6.58755e-06 -3.41419e-09 0)
(6.60046e-06 -3.8697e-09 0)
(6.61476e-06 -4.3646e-09 0)
(6.63048e-06 -4.77424e-09 0)
(6.64761e-06 -5.07691e-09 0)
(6.66606e-06 -5.36221e-09 0)
(6.68574e-06 -5.68017e-09 0)
(6.70663e-06 -5.99642e-09 0)
(6.72863e-06 -6.24972e-09 0)
(6.75153e-06 -6.42704e-09 0)
(6.77519e-06 -6.55964e-09 0)
(6.79951e-06 -6.66134e-09 0)
(6.8244e-06 -6.74484e-09 0)
(6.84963e-06 -6.80152e-09 0)
(6.87494e-06 -6.7874e-09 0)
(6.90017e-06 -6.69161e-09 0)
(6.92515e-06 -6.53253e-09 0)
(6.9496e-06 -6.32524e-09 0)
(6.97325e-06 -6.05682e-09 0)
(6.99583e-06 -5.68852e-09 0)
(7.01715e-06 -5.21434e-09 0)
(7.03689e-06 -4.65438e-09 0)
(7.05472e-06 -4.03024e-09 0)
(7.07042e-06 -3.35909e-09 0)
(7.0837e-06 -2.60523e-09 0)
(7.09425e-06 -1.73512e-09 0)
(7.10174e-06 -7.81516e-10 0)
(7.10579e-06 2.50556e-10 0)
(7.1061e-06 1.37466e-09 0)
(7.10248e-06 2.58695e-09 0)
(7.09456e-06 3.9091e-09 0)
(7.08198e-06 5.33391e-09 0)
(7.06448e-06 6.82952e-09 0)
(7.0417e-06 8.4181e-09 0)
(7.01337e-06 1.00895e-08 0)
(6.97916e-06 1.18192e-08 0)
(6.93873e-06 1.36411e-08 0)
(6.89184e-06 1.55646e-08 0)
(6.83829e-06 1.75682e-08 0)
(6.77776e-06 1.96528e-08 0)
(6.71006e-06 2.17957e-08 0)
(6.63498e-06 2.39744e-08 0)
(6.55228e-06 2.62185e-08 0)
(6.46178e-06 2.85218e-08 0)
(6.36331e-06 3.08523e-08 0)
(6.25666e-06 3.32372e-08 0)
(6.14178e-06 3.56785e-08 0)
(6.01862e-06 3.81402e-08 0)
(5.88702e-06 4.06176e-08 0)
(5.74705e-06 4.30734e-08 0)
(5.59879e-06 4.5474e-08 0)
(5.44226e-06 4.78787e-08 0)
(5.27755e-06 5.03099e-08 0)
(5.10483e-06 5.26801e-08 0)
(4.92424e-06 5.49526e-08 0)
(4.73602e-06 5.716e-08 0)
(4.54054e-06 5.92753e-08 0)
(4.33813e-06 6.12619e-08 0)
(4.12919e-06 6.31195e-08 0)
(3.91428e-06 6.48227e-08 0)
(3.69397e-06 6.63686e-08 0)
(3.46888e-06 6.77617e-08 0)
(3.23984e-06 6.89123e-08 0)
(3.00762e-06 6.97432e-08 0)
(2.773e-06 7.02948e-08 0)
(2.53702e-06 7.05869e-08 0)
(2.30092e-06 7.05346e-08 0)
(2.06594e-06 7.00601e-08 0)
(1.83349e-06 6.91365e-08 0)
(1.60517e-06 6.77216e-08 0)
(1.38263e-06 6.57618e-08 0)
(1.16763e-06 6.32183e-08 0)
(9.62242e-07 6.00323e-08 0)
(7.68638e-07 5.60991e-08 0)
(5.89082e-07 5.13156e-08 0)
(4.26154e-07 4.56271e-08 0)
(2.82685e-07 3.89562e-08 0)
(1.6149e-07 3.12061e-08 0)
(6.52575e-08 2.23788e-08 0)
(-3.50628e-09 1.25588e-08 0)
(-4.28905e-08 1.99363e-09 0)
(-5.25462e-08 -8.4303e-09 0)
(-3.6959e-08 -1.56293e-08 0)
(-1.17622e-08 -1.23101e-08 0)
(7.91869e-08 1.50652e-08 0)
(8.03277e-08 1.36819e-07 0)
(4.91022e-08 5.30322e-08 0)
(8.66873e-08 -2.32552e-08 0)
(2.11889e-07 -1.00694e-07 0)
(4.17132e-07 -1.67584e-07 0)
(6.95398e-07 -2.23869e-07 0)
(1.0384e-06 -2.70752e-07 0)
(1.43864e-06 -3.09586e-07 0)
(1.88697e-06 -3.4223e-07 0)
(2.37677e-06 -3.68703e-07 0)
(2.90031e-06 -3.90176e-07 0)
(3.45154e-06 -4.07216e-07 0)
(4.02503e-06 -4.20067e-07 0)
(4.61484e-06 -4.29387e-07 0)
(5.21636e-06 -4.35581e-07 0)
(5.8253e-06 -4.38591e-07 0)
(6.43734e-06 -4.38992e-07 0)
(7.04906e-06 -4.37153e-07 0)
(7.65744e-06 -4.33051e-07 0)
(8.2591e-06 -4.2713e-07 0)
(8.85163e-06 -4.19581e-07 0)
(9.43312e-06 -4.10386e-07 0)
(1.0001e-05 -3.9998e-07 0)
(1.05538e-05 -3.88626e-07 0)
(1.10901e-05 -3.76183e-07 0)
(1.16082e-05 -3.62928e-07 0)
(1.21073e-05 -3.4893e-07 0)
(1.25866e-05 -3.34428e-07 0)
(1.30451e-05 -3.19583e-07 0)
(1.34826e-05 -3.04342e-07 0)
(1.38985e-05 -2.88991e-07 0)
(1.42924e-05 -2.73675e-07 0)
(1.46645e-05 -2.58195e-07 0)
(1.50147e-05 -2.42692e-07 0)
(1.5343e-05 -2.27457e-07 0)
(1.56499e-05 -2.1243e-07 0)
(1.59356e-05 -1.97612e-07 0)
(1.62005e-05 -1.83132e-07 0)
(1.64451e-05 -1.69035e-07 0)
(1.66699e-05 -1.5538e-07 0)
(1.68757e-05 -1.42216e-07 0)
(1.70631e-05 -1.29495e-07 0)
(1.72328e-05 -1.17272e-07 0)
(1.73855e-05 -1.05642e-07 0)
(1.7522e-05 -9.45871e-08 0)
(1.76435e-05 -8.40891e-08 0)
(1.77505e-05 -7.42614e-08 0)
(1.78439e-05 -6.51371e-08 0)
(1.79247e-05 -5.65849e-08 0)
(1.7994e-05 -4.86087e-08 0)
(1.80525e-05 -4.1349e-08 0)
(1.81012e-05 -3.48126e-08 0)
(1.81409e-05 -2.8869e-08 0)
(1.81726e-05 -2.34431e-08 0)
(1.81972e-05 -1.85882e-08 0)
(1.82155e-05 -1.43707e-08 0)
(1.82285e-05 -1.07972e-08 0)
(1.82369e-05 -7.84919e-09 0)
(1.82417e-05 -5.44148e-09 0)
(1.82436e-05 -3.468e-09 0)
(1.82433e-05 -2.00015e-09 0)
(1.82414e-05 -1.14759e-09 0)
(1.82389e-05 -7.90663e-10 0)
(1.82365e-05 -7.84136e-10 0)
(1.82346e-05 -1.17784e-09 0)
(1.82335e-05 -1.97904e-09 0)
(1.82341e-05 -3.07376e-09 0)
(1.8237e-05 -4.44644e-09 0)
(1.82424e-05 -6.18822e-09 0)
(1.82509e-05 -8.3115e-09 0)
(1.82627e-05 -1.06924e-08 0)
(1.82781e-05 -1.31905e-08 0)
(1.82973e-05 -1.57472e-08 0)
(1.83205e-05 -1.83507e-08 0)
(1.8348e-05 -2.10103e-08 0)
(1.83799e-05 -2.37937e-08 0)
(1.84161e-05 -2.67375e-08 0)
(1.84567e-05 -2.9722e-08 0)
(1.85018e-05 -3.2579e-08 0)
(1.85511e-05 -3.52923e-08 0)
(1.86045e-05 -3.79103e-08 0)
(1.86616e-05 -4.03716e-08 0)
(1.87226e-05 -4.26061e-08 0)
(1.87869e-05 -4.46131e-08 0)
(1.88543e-05 -4.63806e-08 0)
(1.89241e-05 -4.78607e-08 0)
(1.89962e-05 -4.89939e-08 0)
(1.90699e-05 -4.98038e-08 0)
(1.9145e-05 -5.03146e-08 0)
(1.92206e-05 -5.04183e-08 0)
(1.92964e-05 -5.00466e-08 0)
(1.93715e-05 -4.92287e-08 0)
(1.94453e-05 -4.7976e-08 0)
(1.95171e-05 -4.6249e-08 0)
(1.95862e-05 -4.39692e-08 0)
(1.96519e-05 -4.11241e-08 0)
(1.97133e-05 -3.7754e-08 0)
(1.97696e-05 -3.38247e-08 0)
(1.98198e-05 -2.92849e-08 0)
(1.98633e-05 -2.41117e-08 0)
(1.98991e-05 -1.82986e-08 0)
(1.99264e-05 -1.1921e-08 0)
(1.99443e-05 -4.9925e-09 0)
(1.99518e-05 2.57865e-09 0)
(1.99479e-05 1.07878e-08 0)
(1.99319e-05 1.96227e-08 0)
(1.99027e-05 2.91182e-08 0)
(1.98597e-05 3.92331e-08 0)
(1.98018e-05 4.99581e-08 0)
(1.9728e-05 6.1282e-08 0)
(1.96377e-05 7.31427e-08 0)
(1.95299e-05 8.5572e-08 0)
(1.94039e-05 9.86078e-08 0)
(1.9259e-05 1.12169e-07 0)
(1.90943e-05 1.26192e-07 0)
(1.89092e-05 1.40673e-07 0)
(1.87031e-05 1.55566e-07 0)
(1.84755e-05 1.70844e-07 0)
(1.82257e-05 1.8649e-07 0)
(1.79534e-05 2.02404e-07 0)
(1.76581e-05 2.18542e-07 0)
(1.73395e-05 2.34908e-07 0)
(1.69974e-05 2.51408e-07 0)
(1.66317e-05 2.67968e-07 0)
(1.62423e-05 2.84553e-07 0)
(1.58294e-05 3.0104e-07 0)
(1.53932e-05 3.17335e-07 0)
(1.4934e-05 3.33415e-07 0)
(1.44522e-05 3.49161e-07 0)
(1.39484e-05 3.64403e-07 0)
(1.34232e-05 3.79086e-07 0)
(1.28777e-05 3.93136e-07 0)
(1.23129e-05 4.06364e-07 0)
(1.17301e-05 4.18629e-07 0)
(1.11307e-05 4.2983e-07 0)
(1.05163e-05 4.39842e-07 0)
(9.88882e-06 4.48542e-07 0)
(9.25039e-06 4.55724e-07 0)
(8.60342e-06 4.61095e-07 0)
(7.95046e-06 4.64457e-07 0)
(7.29435e-06 4.65701e-07 0)
(6.63832e-06 4.64635e-07 0)
(5.98589e-06 4.6096e-07 0)
(5.34092e-06 4.54384e-07 0)
(4.70769e-06 4.44649e-07 0)
(4.09086e-06 4.31466e-07 0)
(3.49532e-06 4.14504e-07 0)
(2.92638e-06 3.93429e-07 0)
(2.38971e-06 3.67909e-07 0)
(1.89133e-06 3.37614e-07 0)
(1.43752e-06 3.02287e-07 0)
(1.03478e-06 2.6177e-07 0)
(6.89628e-07 2.15996e-07 0)
(4.08046e-07 1.65236e-07 0)
(1.948e-07 1.1059e-07 0)
(5.22941e-08 5.45913e-08 0)
(-2.10645e-08 2.28065e-09 0)
(-3.63917e-08 -3.5326e-08 0)
(-1.49345e-08 -3.60672e-08 0)
(3.42352e-08 9.02157e-10 0)
(7.66929e-08 5.55984e-08 0)
(1.79279e-07 -2.40305e-08 0)
(3.43818e-07 -1.70126e-07 0)
(6.02347e-07 -3.32745e-07 0)
(9.61858e-07 -4.87719e-07 0)
(1.41909e-06 -6.27608e-07 0)
(1.967e-06 -7.49478e-07 0)
(2.59603e-06 -8.55014e-07 0)
(3.29745e-06 -9.44303e-07 0)
(4.06029e-06 -1.01926e-06 0)
(4.87515e-06 -1.08099e-06 0)
(5.73312e-06 -1.13004e-06 0)
(6.62493e-06 -1.16813e-06 0)
(7.54294e-06 -1.19617e-06 0)
(8.47993e-06 -1.21474e-06 0)
(9.42861e-06 -1.22516e-06 0)
(1.03829e-05 -1.22786e-06 0)
(1.13375e-05 -1.22358e-06 0)
(1.22866e-05 -1.21332e-06 0)
(1.32262e-05 -1.19771e-06 0)
(1.41523e-05 -1.17696e-06 0)
(1.50606e-05 -1.15203e-06 0)
(1.59482e-05 -1.12341e-06 0)
(1.68124e-05 -1.09138e-06 0)
(1.76505e-05 -1.05675e-06 0)
(1.84606e-05 -1.01976e-06 0)
(1.92409e-05 -9.80659e-07 0)
(1.99898e-05 -9.40045e-07 0)
(2.07063e-05 -8.98092e-07 0)
(2.13894e-05 -8.55106e-07 0)
(2.20385e-05 -8.11665e-07 0)
(2.26531e-05 -7.67902e-07 0)
(2.32332e-05 -7.23963e-07 0)
(2.37786e-05 -6.80211e-07 0)
(2.42896e-05 -6.3681e-07 0)
(2.47665e-05 -5.93951e-07 0)
(2.52099e-05 -5.51926e-07 0)
(2.56204e-05 -5.10848e-07 0)
(2.59987e-05 -4.70823e-07 0)
(2.63456e-05 -4.32041e-07 0)
(2.66624e-05 -3.94508e-07 0)
(2.695e-05 -3.58318e-07 0)
(2.72095e-05 -3.23709e-07 0)
(2.74422e-05 -2.90725e-07 0)
(2.76494e-05 -2.59279e-07 0)
(2.78326e-05 -2.29511e-07 0)
(2.79929e-05 -2.01621e-07 0)
(2.81318e-05 -1.75554e-07 0)
(2.82509e-05 -1.51202e-07 0)
(2.83515e-05 -1.28616e-07 0)
(2.84352e-05 -1.0794e-07 0)
(2.85034e-05 -8.9174e-08 0)
(2.85577e-05 -7.22649e-08 0)
(2.85995e-05 -5.7204e-08 0)
(2.86302e-05 -4.38786e-08 0)
(2.86511e-05 -3.22229e-08 0)
(2.86637e-05 -2.23011e-08 0)
(2.86694e-05 -1.40622e-08 0)
(2.86696e-05 -7.38203e-09 0)
(2.86655e-05 -2.24127e-09 0)
(2.86581e-05 1.38037e-09 0)
(2.86487e-05 3.61307e-09 0)
(2.86386e-05 4.56741e-09 0)
(2.86289e-05 4.21311e-09 0)
(2.86204e-05 2.51779e-09 0)
(2.8614e-05 -3.39535e-10 0)
(2.86106e-05 -4.11601e-09 0)
(2.8611e-05 -8.72457e-09 0)
(2.86159e-05 -1.41468e-08 0)
(2.8626e-05 -2.03226e-08 0)
(2.86418e-05 -2.72115e-08 0)
(2.8664e-05 -3.47561e-08 0)
(2.86928e-05 -4.27752e-08 0)
(2.87286e-05 -5.10649e-08 0)
(2.87716e-05 -5.95503e-08 0)
(2.88219e-05 -6.82335e-08 0)
(2.88796e-05 -7.70253e-08 0)
(2.89449e-05 -8.57409e-08 0)
(2.90177e-05 -9.42732e-08 0)
(2.90976e-05 -1.02608e-07 0)
(2.91845e-05 -1.10639e-07 0)
(2.9278e-05 -1.18146e-07 0)
(2.9378e-05 -1.25031e-07 0)
(2.94837e-05 -1.31325e-07 0)
(2.95947e-05 -1.36943e-07 0)
(2.97104e-05 -1.41725e-07 0)
(2.98299e-05 -1.45559e-07 0)
(2.99524e-05 -1.48382e-07 0)
(3.00774e-05 -1.50162e-07 0)
(3.02038e-05 -1.50791e-07 0)
(3.03307e-05 -1.50158e-07 0)
(3.04569e-05 -1.48253e-07 0)
(3.05814e-05 -1.45015e-07 0)
(3.07031e-05 -1.40311e-07 0)
(3.08208e-05 -1.34061e-07 0)
(3.09333e-05 -1.26245e-07 0)
(3.10393e-05 -1.16874e-07 0)
(3.11372e-05 -1.0589e-07 0)
(3.1226e-05 -9.31528e-08 0)
(3.13042e-05 -7.86191e-08 0)
(3.13704e-05 -6.23001e-08 0)
(3.14231e-05 -4.41989e-08 0)
(3.14609e-05 -2.43602e-08 0)
(3.14823e-05 -2.75114e-09 0)
(3.14859e-05 2.06657e-08 0)
(3.14701e-05 4.58641e-08 0)
(3.14336e-05 7.29001e-08 0)
(3.13749e-05 1.01778e-07 0)
(3.12926e-05 1.32394e-07 0)
(3.11853e-05 1.64722e-07 0)
(3.10514e-05 1.9875e-07 0)
(3.08899e-05 2.34412e-07 0)
(3.06995e-05 2.71659e-07 0)
(3.04788e-05 3.10398e-07 0)
(3.02268e-05 3.50483e-07 0)
(2.99422e-05 3.91881e-07 0)
(2.96241e-05 4.34551e-07 0)
(2.92716e-05 4.78305e-07 0)
(2.8884e-05 5.23006e-07 0)
(2.84604e-05 5.68548e-07 0)
(2.80003e-05 6.14746e-07 0)
(2.75031e-05 6.61476e-07 0)
(2.69686e-05 7.08606e-07 0)
(2.63965e-05 7.55888e-07 0)
(2.57869e-05 8.03122e-07 0)
(2.514e-05 8.50144e-07 0)
(2.44559e-05 8.96661e-07 0)
(2.37354e-05 9.42368e-07 0)
(2.2979e-05 9.87031e-07 0)
(2.21877e-05 1.03034e-06 0)
(2.13628e-05 1.07199e-06 0)
(2.05058e-05 1.11173e-06 0)
(1.96183e-05 1.14919e-06 0)
(1.87023e-05 1.18391e-06 0)
(1.77603e-05 1.21548e-06 0)
(1.67949e-05 1.24355e-06 0)
(1.5809e-05 1.26769e-06 0)
(1.48061e-05 1.28738e-06 0)
(1.37899e-05 1.3021e-06 0)
(1.27645e-05 1.31127e-06 0)
(1.17346e-05 1.3143e-06 0)
(1.07052e-05 1.31062e-06 0)
(9.68164e-06 1.29958e-06 0)
(8.67005e-06 1.28047e-06 0)
(7.67703e-06 1.25254e-06 0)
(6.70954e-06 1.21509e-06 0)
(5.7751e-06 1.1673e-06 0)
(4.88177e-06 1.10836e-06 0)
(4.03798e-06 1.03756e-06 0)
(3.2525e-06 9.54292e-07 0)
(2.53441e-06 8.58079e-07 0)
(1.8928e-06 7.48861e-07 0)
(1.33624e-06 6.27156e-07 0)
(8.72421e-07 4.94406e-07 0)
(5.07313e-07 3.53811e-07 0)
(2.43486e-07 2.11721e-07 0)
(7.85594e-08 7.96104e-08 0)
(1.39654e-09 -2.17423e-08 0)
(-8.37987e-09 -5.16266e-08 0)
(2.6108e-08 -7.75663e-08 0)
(1.05519e-07 -7.63118e-08 0)
(2.97458e-07 -2.17465e-07 0)
(5.85395e-07 -4.53979e-07 0)
(9.85813e-07 -7.20369e-07 0)
(1.5056e-06 -9.83559e-07 0)
(2.14196e-06 -1.22746e-06 0)
(2.8872e-06 -1.44707e-06 0)
(3.73263e-06 -1.63922e-06 0)
(4.66684e-06 -1.80507e-06 0)
(5.67831e-06 -1.94571e-06 0)
(6.75594e-06 -2.06197e-06 0)
(7.88811e-06 -2.15611e-06 0)
(9.06398e-06 -2.22945e-06 0)
(1.02738e-05 -2.28348e-06 0)
(1.15078e-05 -2.32026e-06 0)
(1.27574e-05 -2.34105e-06 0)
(1.40146e-05 -2.34714e-06 0)
(1.52717e-05 -2.34017e-06 0)
(1.65221e-05 -2.32144e-06 0)
(1.77601e-05 -2.29184e-06 0)
(1.89799e-05 -2.25301e-06 0)
(2.01767e-05 -2.20584e-06 0)
(2.13462e-05 -2.15117e-06 0)
(2.24845e-05 -2.09019e-06 0)
(2.35884e-05 -2.02372e-06 0)
(2.46553e-05 -1.9525e-06 0)
(2.56825e-05 -1.87755e-06 0)
(2.66682e-05 -1.79945e-06 0)
(2.76108e-05 -1.71875e-06 0)
(2.85089e-05 -1.63626e-06 0)
(2.93617e-05 -1.55253e-06 0)
(3.01687e-05 -1.468e-06 0)
(3.09295e-05 -1.3833e-06 0)
(3.16442e-05 -1.29889e-06 0)
(3.2313e-05 -1.2151e-06 0)
(3.29362e-05 -1.13235e-06 0)
(3.35147e-05 -1.051e-06 0)
(3.40492e-05 -9.71458e-07 0)
(3.45408e-05 -8.94047e-07 0)
(3.49905e-05 -8.18918e-07 0)
(3.54e-05 -7.46218e-07 0)
(3.57703e-05 -6.76266e-07 0)
(3.61032e-05 -6.09355e-07 0)
(3.64005e-05 -5.45508e-07 0)
(3.66638e-05 -4.84768e-07 0)
(3.68948e-05 -4.27416e-07 0)
(3.70954e-05 -3.7358e-07 0)
(3.72677e-05 -3.23199e-07 0)
(3.74137e-05 -2.76322e-07 0)
(3.75351e-05 -2.33025e-07 0)
(3.76341e-05 -1.93313e-07 0)
(3.77125e-05 -1.5716e-07 0)
(3.77725e-05 -1.24572e-07 0)
(3.78161e-05 -9.55574e-08 0)
(3.78451e-05 -7.00453e-08 0)
(3.78615e-05 -4.7978e-08 0)
(3.78671e-05 -2.92635e-08 0)
(3.78638e-05 -1.36989e-08 0)
(3.78535e-05 -1.22438e-09 0)
(3.78379e-05 8.08638e-09 0)
(3.78184e-05 1.44045e-08 0)
(3.77969e-05 1.8072e-08 0)
(3.77748e-05 1.9237e-08 0)
(3.77536e-05 1.78793e-08 0)
(3.77345e-05 1.40684e-08 0)
(3.7719e-05 8.02556e-09 0)
(3.77082e-05 -3.04609e-11 0)
(3.7703e-05 -9.93066e-09 0)
(3.77046e-05 -2.14484e-08 0)
(3.77136e-05 -3.43417e-08 0)
(3.7731e-05 -4.84909e-08 0)
(3.77574e-05 -6.37829e-08 0)
(3.77934e-05 -7.99702e-08 0)
(3.78396e-05 -9.6843e-08 0)
(3.7896e-05 -1.14301e-07 0)
(3.7963e-05 -1.32143e-07 0)
(3.80406e-05 -1.50038e-07 0)
(3.81291e-05 -1.67742e-07 0)
(3.82281e-05 -1.85167e-07 0)
(3.83375e-05 -2.02189e-07 0)
(3.84569e-05 -2.18548e-07 0)
(3.8586e-05 -2.33957e-07 0)
(3.87241e-05 -2.48227e-07 0)
(3.88707e-05 -2.61253e-07 0)
(3.9025e-05 -2.72879e-07 0)
(3.91862e-05 -2.82911e-07 0)
(3.93532e-05 -2.91189e-07 0)
(3.95249e-05 -2.97494e-07 0)
(3.97004e-05 -3.01633e-07 0)
(3.98784e-05 -3.03501e-07 0)
(4.00575e-05 -3.02975e-07 0)
(4.02362e-05 -2.99923e-07 0)
(4.04132e-05 -2.9419e-07 0)
(4.05869e-05 -2.85575e-07 0)
(4.07557e-05 -2.73975e-07 0)
(4.09179e-05 -2.59339e-07 0)
(4.10717e-05 -2.41568e-07 0)
(4.12152e-05 -2.20562e-07 0)
(4.13468e-05 -1.96202e-07 0)
(4.14645e-05 -1.68414e-07 0)
(4.15664e-05 -1.37194e-07 0)
(4.16505e-05 -1.02462e-07 0)
(4.17148e-05 -6.41908e-08 0)
(4.17573e-05 -2.24282e-08 0)
(4.17762e-05 2.28688e-08 0)
(4.17693e-05 7.17251e-08 0)
(4.17347e-05 1.24126e-07 0)
(4.16706e-05 1.80055e-07 0)
(4.15749e-05 2.39389e-07 0)
(4.14456e-05 3.0203e-07 0)
(4.12811e-05 3.67997e-07 0)
(4.10794e-05 4.37214e-07 0)
(4.08389e-05 5.09477e-07 0)
(4.0558e-05 5.84623e-07 0)
(4.02349e-05 6.62473e-07 0)
(3.98683e-05 7.4283e-07 0)
(3.94568e-05 8.25573e-07 0)
(3.89992e-05 9.10483e-07 0)
(3.84944e-05 9.97232e-07 0)
(3.79415e-05 1.0856e-06 0)
(3.73395e-05 1.17531e-06 0)
(3.66879e-05 1.266e-06 0)
(3.59864e-05 1.35734e-06 0)
(3.52344e-05 1.449e-06 0)
(3.44323e-05 1.54054e-06 0)
(3.35802e-05 1.63153e-06 0)
(3.26784e-05 1.72151e-06 0)
(3.17277e-05 1.80993e-06 0)
(3.07293e-05 1.89624e-06 0)
(2.96842e-05 1.97993e-06 0)
(2.85943e-05 2.06041e-06 0)
(2.74616e-05 2.13699e-06 0)
(2.62883e-05 2.20907e-06 0)
(2.5077e-05 2.27592e-06 0)
(2.38312e-05 2.3367e-06 0)
(2.25543e-05 2.39055e-06 0)
(2.12504e-05 2.43665e-06 0)
(1.99238e-05 2.47409e-06 0)
(1.85798e-05 2.50189e-06 0)
(1.72237e-05 2.51906e-06 0)
(1.58616e-05 2.52449e-06 0)
(1.45003e-05 2.51698e-06 0)
(1.31468e-05 2.49532e-06 0)
(1.18089e-05 2.4583e-06 0)
(1.04952e-05 2.40459e-06 0)
(9.21483e-06 2.33287e-06 0)
(7.97721e-06 2.24184e-06 0)
(6.79253e-06 2.13022e-06 0)
(5.67145e-06 1.99688e-06 0)
(4.62482e-06 1.84091e-06 0)
(3.66366e-06 1.66181e-06 0)
(2.79886e-06 1.45979e-06 0)
(2.0406e-06 1.23619e-06 0)
(1.39769e-06 9.94221e-07 0)
(8.7685e-07 7.40011e-07 0)
(4.81194e-07 4.84337e-07 0)
(2.08948e-07 2.44953e-07 0)
(5.29675e-08 5.10294e-08 0)
(1.39396e-09 -4.3501e-08 0)
(2.40365e-08 -1.28903e-07 0)
(1.3843e-07 -2.57245e-07 0)
(4.14324e-07 -5.11321e-07 0)
(8.2127e-07 -8.67307e-07 0)
(1.36141e-06 -1.25884e-06 0)
(2.03838e-06 -1.64681e-06 0)
(2.84728e-06 -2.01203e-06 0)
(3.7807e-06 -2.34343e-06 0)
(4.82786e-06 -2.63785e-06 0)
(5.97657e-06 -2.89398e-06 0)
(7.21475e-06 -3.11221e-06 0)
(8.52915e-06 -3.29438e-06 0)
(9.90708e-06 -3.44243e-06 0)
(1.13364e-05 -3.55825e-06 0)
(1.2805e-05 -3.64432e-06 0)
(1.43021e-05 -3.70299e-06 0)
(1.58175e-05 -3.73625e-06 0)
(1.73413e-05 -3.7466e-06 0)
(1.88649e-05 -3.73609e-06 0)
(2.03803e-05 -3.70641e-06 0)
(2.188e-05 -3.65975e-06 0)
(2.33575e-05 -3.59798e-06 0)
(2.4807e-05 -3.52267e-06 0)
(2.62231e-05 -3.43553e-06 0)
(2.76012e-05 -3.33806e-06 0)
(2.89372e-05 -3.23152e-06 0)
(3.02277e-05 -3.11748e-06 0)
(3.14698e-05 -2.99713e-06 0)
(3.2661e-05 -2.87151e-06 0)
(3.37994e-05 -2.74194e-06 0)
(3.48833e-05 -2.60937e-06 0)
(3.59118e-05 -2.4746e-06 0)
(3.6884e-05 -2.33863e-06 0)
(3.77996e-05 -2.20229e-06 0)
(3.86585e-05 -2.0663e-06 0)
(3.94611e-05 -1.93138e-06 0)
(4.02079e-05 -1.7981e-06 0)
(4.08996e-05 -1.66706e-06 0)
(4.15373e-05 -1.53888e-06 0)
(4.21222e-05 -1.41405e-06 0)
(4.26559e-05 -1.29285e-06 0)
(4.31401e-05 -1.17574e-06 0)
(4.35762e-05 -1.06311e-06 0)
(4.39665e-05 -9.55205e-07 0)
(4.4313e-05 -8.52231e-07 0)
(4.46178e-05 -7.54484e-07 0)
(4.48831e-05 -6.62235e-07 0)
(4.51113e-05 -5.75495e-07 0)
(4.53049e-05 -4.94372e-07 0)
(4.54662e-05 -4.19069e-07 0)
(4.55976e-05 -3.49629e-07 0)
(4.57018e-05 -2.86028e-07 0)
(4.5781e-05 -2.28252e-07 0)
(4.58379e-05 -1.76231e-07 0)
(4.5875e-05 -1.29919e-07 0)
(4.58945e-05 -8.93345e-08 0)
(4.5899e-05 -5.43991e-08 0)
(4.58908e-05 -2.48656e-08 0)
(4.58722e-05 -5.10346e-10 0)
(4.58454e-05 1.8717e-08 0)
(4.58125e-05 3.28823e-08 0)
(4.57757e-05 4.22746e-08 0)
(4.57372e-05 4.71927e-08 0)
(4.56986e-05 4.78063e-08 0)
(4.56617e-05 4.43428e-08 0)
(4.56282e-05 3.71037e-08 0)
(4.55998e-05 2.63298e-08 0)
(4.55779e-05 1.22422e-08 0)
(4.55639e-05 -4.8846e-09 0)
(4.5559e-05 -2.47435e-08 0)
(4.55643e-05 -4.70126e-08 0)
(4.55806e-05 -7.13576e-08 0)
(4.56089e-05 -9.74282e-08 0)
(4.565e-05 -1.24893e-07 0)
(4.57043e-05 -1.53522e-07 0)
(4.57722e-05 -1.83096e-07 0)
(4.58541e-05 -2.13219e-07 0)
(4.59501e-05 -2.43448e-07 0)
(4.60603e-05 -2.73483e-07 0)
(4.61843e-05 -3.03079e-07 0)
(4.6322e-05 -3.31901e-07 0)
(4.64731e-05 -3.5959e-07 0)
(4.66369e-05 -3.85846e-07 0)
(4.68129e-05 -4.10359e-07 0)
(4.7e-05 -4.32791e-07 0)
(4.71975e-05 -4.52852e-07 0)
(4.74042e-05 -4.70291e-07 0)
(4.76189e-05 -4.84869e-07 0)
(4.78404e-05 -4.96261e-07 0)
(4.80672e-05 -5.04117e-07 0)
(4.82978e-05 -5.0825e-07 0)
(4.85305e-05 -5.0849e-07 0)
(4.87635e-05 -5.04563e-07 0)
(4.8995e-05 -4.96201e-07 0)
(4.92232e-05 -4.83169e-07 0)
(4.94458e-05 -4.65307e-07 0)
(4.96609e-05 -4.42507e-07 0)
(4.98661e-05 -4.14557e-07 0)
(5.00593e-05 -3.81254e-07 0)
(5.02382e-05 -3.42505e-07 0)
(5.04004e-05 -2.98212e-07 0)
(5.05436e-05 -2.48307e-07 0)
(5.06652e-05 -1.92713e-07 0)
(5.07627e-05 -1.31339e-07 0)
(5.08338e-05 -6.4207e-08 0)
(5.08759e-05 8.68831e-09 0)
(5.08865e-05 8.74218e-08 0)
(5.08634e-05 1.71943e-07 0)
(5.08039e-05 2.62134e-07 0)
(5.07055e-05 3.57898e-07 0)
(5.05661e-05 4.59106e-07 0)
(5.03833e-05 5.65646e-07 0)
(5.01548e-05 6.77404e-07 0)
(4.98785e-05 7.94127e-07 0)
(4.95524e-05 9.15522e-07 0)
(4.91744e-05 1.04137e-06 0)
(4.87427e-05 1.17136e-06 0)
(4.82559e-05 1.30512e-06 0)
(4.77121e-05 1.44235e-06 0)
(4.71101e-05 1.58262e-06 0)
(4.64488e-05 1.72546e-06 0)
(4.57272e-05 1.87046e-06 0)
(4.49443e-05 2.01707e-06 0)
(4.40999e-05 2.16466e-06 0)
(4.31935e-05 2.31268e-06 0)
(4.22252e-05 2.4605e-06 0)
(4.11953e-05 2.60735e-06 0)
(4.01043e-05 2.75245e-06 0)
(3.89531e-05 2.89502e-06 0)
(3.77431e-05 3.0342e-06 0)
(3.64759e-05 3.16906e-06 0)
(3.51536e-05 3.29869e-06 0)
(3.37786e-05 3.42201e-06 0)
(3.23539e-05 3.53788e-06 0)
(3.08828e-05 3.64518e-06 0)
(2.9369e-05 3.74274e-06 0)
(2.78172e-05 3.82914e-06 0)
(2.62322e-05 3.90298e-06 0)
(2.46196e-05 3.96282e-06 0)
(2.29855e-05 4.00717e-06 0)
(2.13365e-05 4.03439e-06 0)
(1.96801e-05 4.04279e-06 0)
(1.80241e-05 4.03059e-06 0)
(1.63774e-05 3.99589e-06 0)
(1.47491e-05 3.93679e-06 0)
(1.31495e-05 3.8514e-06 0)
(1.15892e-05 3.73776e-06 0)
(1.00795e-05 3.59397e-06 0)
(8.63215e-06 3.4183e-06 0)
(7.25947e-06 3.20926e-06 0)
(5.97385e-06 2.96581e-06 0)
(4.78782e-06 2.68752e-06 0)
(3.7136e-06 2.37507e-06 0)
(2.76253e-06 2.03087e-06 0)
(1.94461e-06 1.65988e-06 0)
(1.2678e-06 1.27106e-06 0)
(7.36394e-07 8.79356e-07 0)
(3.50366e-07 5.07875e-07 0)
(1.08628e-07 1.92188e-07 0)
(1.1828e-08 -5.73362e-09 0)
(2.65942e-08 -2.02434e-07 0)
(1.77614e-07 -4.96389e-07 0)
(5.32315e-07 -9.01254e-07 0)
(1.05081e-06 -1.40425e-06 0)
(1.72502e-06 -1.94147e-06 0)
(2.55159e-06 -2.47181e-06 0)
(3.52482e-06 -2.97121e-06 0)
(4.63438e-06 -3.42801e-06 0)
(5.86842e-06 -3.83598e-06 0)
(7.21459e-06 -4.19269e-06 0)
(8.65849e-06 -4.49844e-06 0)
(1.01863e-05 -4.75463e-06 0)
(1.17844e-05 -4.96339e-06 0)
(1.3439e-05 -5.12748e-06 0)
(1.51371e-05 -5.24973e-06 0)
(1.68666e-05 -5.33289e-06 0)
(1.86157e-05 -5.38027e-06 0)
(2.03735e-05 -5.39483e-06 0)
(2.21305e-05 -5.37932e-06 0)
(2.38772e-05 -5.33656e-06 0)
(2.56053e-05 -5.26935e-06 0)
(2.73072e-05 -5.1801e-06 0)
(2.89761e-05 -5.07137e-06 0)
(3.06059e-05 -4.94544e-06 0)
(3.21915e-05 -4.80442e-06 0)
(3.37279e-05 -4.65043e-06 0)
(3.52111e-05 -4.4854e-06 0)
(3.66378e-05 -4.31099e-06 0)
(3.80051e-05 -4.12902e-06 0)
(3.93106e-05 -3.94116e-06 0)
(4.05527e-05 -3.74876e-06 0)
(4.173e-05 -3.55324e-06 0)
(4.28415e-05 -3.35592e-06 0)
(4.38868e-05 -3.15794e-06 0)
(4.4866e-05 -2.96043e-06 0)
(4.57793e-05 -2.76441e-06 0)
(4.66274e-05 -2.57081e-06 0)
(4.74111e-05 -2.3805e-06 0)
(4.81317e-05 -2.19428e-06 0)
(4.87908e-05 -2.01278e-06 0)
(4.939e-05 -1.83665e-06 0)
(4.99311e-05 -1.66658e-06 0)
(5.04164e-05 -1.50303e-06 0)
(5.08482e-05 -1.34626e-06 0)
(5.12289e-05 -1.19679e-06 0)
(5.1561e-05 -1.05506e-06 0)
(5.18471e-05 -9.21248e-07 0)
(5.20902e-05 -7.95493e-07 0)
(5.22928e-05 -6.78031e-07 0)
(5.24581e-05 -5.69023e-07 0)
(5.25888e-05 -4.68554e-07 0)
(5.26879e-05 -3.76689e-07 0)
(5.27584e-05 -2.93401e-07 0)
(5.28033e-05 -2.18578e-07 0)
(5.28254e-05 -1.52179e-07 0)
(5.28276e-05 -9.41595e-08 0)
(5.28127e-05 -4.43176e-08 0)
(5.27837e-05 -2.41782e-09 0)
(5.27433e-05 3.17003e-08 0)
(5.26939e-05 5.82455e-08 0)
(5.26382e-05 7.75296e-08 0)
(5.25788e-05 8.98931e-08 0)
(5.25181e-05 9.55936e-08 0)
(5.24582e-05 9.48684e-08 0)
(5.24013e-05 8.81119e-08 0)
(5.23493e-05 7.57901e-08 0)
(5.23043e-05 5.82733e-08 0)
(5.22679e-05 3.59416e-08 0)
(5.22417e-05 9.23506e-09 0)
(5.22272e-05 -2.14716e-08 0)
(5.22257e-05 -5.58039e-08 0)
(5.22384e-05 -9.32341e-08 0)
(5.22663e-05 -1.33208e-07 0)
(5.23102e-05 -1.75306e-07 0)
(5.23707e-05 -2.19148e-07 0)
(5.24482e-05 -2.64256e-07 0)
(5.25434e-05 -3.10062e-07 0)
(5.26562e-05 -3.56079e-07 0)
(5.27868e-05 -4.01928e-07 0)
(5.29347e-05 -4.47129e-07 0)
(5.30999e-05 -4.91117e-07 0)
(5.32818e-05 -5.33412e-07 0)
(5.34798e-05 -5.73629e-07 0)
(5.36931e-05 -6.11327e-07 0)
(5.39207e-05 -6.45988e-07 0)
(5.41614e-05 -6.77173e-07 0)
(5.4414e-05 -7.04491e-07 0)
(5.4677e-05 -7.27528e-07 0)
(5.4949e-05 -7.45857e-07 0)
(5.52283e-05 -7.59047e-07 0)
(5.55129e-05 -7.66767e-07 0)
(5.58008e-05 -7.68729e-07 0)
(5.609e-05 -7.64519e-07 0)
(5.63783e-05 -7.53747e-07 0)
(5.66635e-05 -7.36149e-07 0)
(5.69431e-05 -7.11477e-07 0)
(5.72144e-05 -6.795e-07 0)
(5.7475e-05 -6.39957e-07 0)
(5.77221e-05 -5.92562e-07 0)
(5.79531e-05 -5.37162e-07 0)
(5.81651e-05 -4.73625e-07 0)
(5.83552e-05 -4.01788e-07 0)
(5.85206e-05 -3.21576e-07 0)
(5.86583e-05 -2.32921e-07 0)
(5.87652e-05 -1.35755e-07 0)
(5.88387e-05 -3.00664e-08 0)
(5.88757e-05 8.41588e-08 0)
(5.88733e-05 2.06865e-07 0)
(5.88285e-05 3.37879e-07 0)
(5.87384e-05 4.77059e-07 0)
(5.86003e-05 6.24307e-07 0)
(5.84115e-05 7.79386e-07 0)
(5.81693e-05 9.41998e-07 0)
(5.78712e-05 1.11186e-06 0)
(5.75147e-05 1.28861e-06 0)
(5.70974e-05 1.47186e-06 0)
(5.66173e-05 1.6612e-06 0)
(5.60724e-05 1.85611e-06 0)
(5.54608e-05 2.05602e-06 0)
(5.47811e-05 2.26039e-06 0)
(5.40317e-05 2.46855e-06 0)
(5.32115e-05 2.67975e-06 0)
(5.23197e-05 2.89325e-06 0)
(5.13555e-05 3.10822e-06 0)
(5.03187e-05 3.32373e-06 0)
(4.92094e-05 3.53885e-06 0)
(4.80277e-05 3.75255e-06 0)
(4.67745e-05 3.96365e-06 0)
(4.54508e-05 4.17097e-06 0)
(4.40582e-05 4.37333e-06 0)
(4.25986e-05 4.5694e-06 0)
(4.10744e-05 4.75773e-06 0)
(3.94886e-05 4.93683e-06 0)
(3.78445e-05 5.10507e-06 0)
(3.6146e-05 5.26073e-06 0)
(3.43978e-05 5.40208e-06 0)
(3.26049e-05 5.52727e-06 0)
(3.0773e-05 5.63428e-06 0)
(2.89087e-05 5.72099e-06 0)
(2.70191e-05 5.78525e-06 0)
(2.51117e-05 5.82478e-06 0)
(2.3195e-05 5.83714e-06 0)
(2.12783e-05 5.81984e-06 0)
(1.93714e-05 5.77037e-06 0)
(1.74848e-05 5.68613e-06 0)
(1.56301e-05 5.56451e-06 0)
(1.38193e-05 5.40293e-06 0)
(1.20649e-05 5.19897e-06 0)
(1.03801e-05 4.95038e-06 0)
(8.77845e-06 4.65532e-06 0)
(7.27361e-06 4.31268e-06 0)
(5.87916e-06 3.92227e-06 0)
(4.60851e-06 3.48536e-06 0)
(3.47417e-06 3.00545e-06 0)
(2.48731e-06 2.48925e-06 0)
(1.65754e-06 1.9481e-06 0)
(9.91289e-07 1.40006e-06 0)
(4.91208e-07 8.72181e-07 0)
(1.63164e-07 4.04165e-07 0)
(2.16889e-08 6.17756e-08 0)
(3.19749e-08 -2.97635e-07 0)
(2.18602e-07 -7.94083e-07 0)
(6.47216e-07 -1.38328e-06 0)
(1.27047e-06 -2.0589e-06 0)
(2.0691e-06 -2.76161e-06 0)
(3.03721e-06 -3.44865e-06 0)
(4.16367e-06 -4.09539e-06 0)
(5.43662e-06 -4.68791e-06 0)
(6.84353e-06 -5.21828e-06 0)
(8.36944e-06 -5.68382e-06 0)
(9.99992e-06 -6.0841e-06 0)
(1.17199e-05 -6.42019e-06 0)
(1.35144e-05 -6.69468e-06 0)
(1.53691e-05 -6.9108e-06 0)
(1.727e-05 -7.07169e-06 0)
(1.92037e-05 -7.18121e-06 0)
(2.11575e-05 -7.2432e-06 0)
(2.31198e-05 -7.26129e-06 0)
(2.50797e-05 -7.23924e-06 0)
(2.7027e-05 -7.18086e-06 0)
(2.89525e-05 -7.08946e-06 0)
(3.08479e-05 -6.9685e-06 0)
(3.27055e-05 -6.82119e-06 0)
(3.45188e-05 -6.65052e-06 0)
(3.62815e-05 -6.45951e-06 0)
(3.79885e-05 -6.25091e-06 0)
(3.96354e-05 -6.02719e-06 0)
(4.12183e-05 -5.79085e-06 0)
(4.27338e-05 -5.54425e-06 0)
(4.41794e-05 -5.28943e-06 0)
(4.55533e-05 -5.02844e-06 0)
(4.68537e-05 -4.7632e-06 0)
(4.80798e-05 -4.49544e-06 0)
(4.9231e-05 -4.22677e-06 0)
(5.03074e-05 -3.95867e-06 0)
(5.13092e-05 -3.69252e-06 0)
(5.22372e-05 -3.4297e-06 0)
(5.30925e-05 -3.17138e-06 0)
(5.38764e-05 -2.91852e-06 0)
(5.45907e-05 -2.67207e-06 0)
(5.52373e-05 -2.43303e-06 0)
(5.58184e-05 -2.20222e-06 0)
(5.63365e-05 -1.98019e-06 0)
(5.67942e-05 -1.76752e-06 0)
(5.71942e-05 -1.56491e-06 0)
(5.75394e-05 -1.37279e-06 0)
(5.78331e-05 -1.19143e-06 0)
(5.80782e-05 -1.02122e-06 0)
(5.82781e-05 -8.62404e-07 0)
(5.8436e-05 -7.1512e-07 0)
(5.85552e-05 -5.79527e-07 0)
(5.86392e-05 -4.5567e-07 0)
(5.86914e-05 -3.43522e-07 0)
(5.87152e-05 -2.43054e-07 0)
(5.87139e-05 -1.54222e-07 0)
(5.86907e-05 -7.68304e-08 0)
(5.86491e-05 -1.05502e-08 0)
(5.85922e-05 4.48009e-08 0)
(5.85232e-05 8.93507e-08 0)
(5.84451e-05 1.23488e-07 0)
(5.83608e-05 1.47724e-07 0)
(5.82734e-05 1.62442e-07 0)
(5.81854e-05 1.67985e-07 0)
(5.80994e-05 1.64777e-07 0)
(5.80179e-05 1.53324e-07 0)
(5.79434e-05 1.34145e-07 0)
(5.78779e-05 1.07763e-07 0)
(5.78234e-05 7.47622e-08 0)
(5.77818e-05 3.57449e-08 0)
(5.77546e-05 -8.75294e-09 0)
(5.77435e-05 -5.81595e-08 0)