/*--------------------------------*- C++ -*----------------------------------*\
  =========                 |
  \\      /  F ield         | OpenFOAM: The Open Source CFD Toolbox
   \\    /   O peration     | Website:  https://openfoam.org
    \\  /    A nd           | Version:  7
     \\/     M anipulation  |
\*---------------------------------------------------------------------------*/
FoamFile
{
    version     2.0;
    format      ascii;
    class       volVectorField;
    location    "0.4";
    object      U;
}
// * * * * * * * * * * * * * * * * * * * * * * * * * * * * * * * * * * * * * //

dimensions      [0 1 -1 0 0 0 0];

internalField   nonuniform List<vector> 
12800
(
(8.33022e-06 -8.31924e-06 0)
(3.71019e-05 -1.85338e-05 0)
(7.85528e-05 -1.97117e-05 0)
(0.000113269 -1.53568e-05 0)
(0.000130017 -8.31498e-06 0)
(0.000123907 -1.40548e-07 0)
(9.27945e-05 8.34373e-06 0)
(3.60638e-05 1.66968e-05 0)
(-4.59287e-05 2.46862e-05 0)
(-0.000152235 3.21932e-05 0)
(-0.000281554 3.91585e-05 0)
(-0.000432381 4.55566e-05 0)
(-0.000603092 5.1382e-05 0)
(-0.000792012 5.66411e-05 0)
(-0.000997448 6.13481e-05 0)
(-0.00121772 6.55219e-05 0)
(-0.0014512 6.91842e-05 0)
(-0.00169627 7.23584e-05 0)
(-0.00195142 7.50692e-05 0)
(-0.00221516 7.73421e-05 0)
(-0.00248611 7.92026e-05 0)
(-0.00276293 8.06762e-05 0)
(-0.00304437 8.17882e-05 0)
(-0.00332927 8.25635e-05 0)
(-0.00361651 8.30265e-05 0)
(-0.00390509 8.32009e-05 0)
(-0.00419405 8.31098e-05 0)
(-0.00448251 8.27755e-05 0)
(-0.00476968 8.22193e-05 0)
(-0.00505482 8.1462e-05 0)
(-0.00533726 8.05231e-05 0)
(-0.00561639 7.94215e-05 0)
(-0.00589168 7.8175e-05 0)
(-0.00616263 7.68006e-05 0)
(-0.00642882 7.53143e-05 0)
(-0.00668988 7.3731e-05 0)
(-0.00694547 7.20649e-05 0)
(-0.00719531 7.0329e-05 0)
(-0.00743918 6.85358e-05 0)
(-0.00767687 6.66967e-05 0)
(-0.00790822 6.48222e-05 0)
(-0.00813313 6.2922e-05 0)
(-0.00835148 6.10052e-05 0)
(-0.00856324 5.90797e-05 0)
(-0.00876836 5.71531e-05 0)
(-0.00896684 5.52319e-05 0)
(-0.0091587 5.33221e-05 0)
(-0.00934396 5.14291e-05 0)
(-0.00952269 4.95576e-05 0)
(-0.00969495 4.77115e-05 0)
(-0.00986083 4.58946e-05 0)
(-0.0100204 4.41097e-05 0)
(-0.0101738 4.23595e-05 0)
(-0.0103212 4.0646e-05 0)
(-0.0104625 3.89708e-05 0)
(-0.0105981 3.7335e-05 0)
(-0.010728 3.57394e-05 0)
(-0.0108523 3.41845e-05 0)
(-0.0109712 3.26703e-05 0)
(-0.0110848 3.11965e-05 0)
(-0.0111932 2.97627e-05 0)
(-0.0112966 2.83681e-05 0)
(-0.0113951 2.70116e-05 0)
(-0.0114889 2.56919e-05 0)
(-0.011578 2.44073e-05 0)
(-0.0116625 2.31562e-05 0)
(-0.0117426 2.19368e-05 0)
(-0.0118184 2.07469e-05 0)
(-0.01189 1.95843e-05 0)
(-0.0119574 1.84464e-05 0)
(-0.0120208 1.73308e-05 0)
(-0.0120802 1.6235e-05 0)
(-0.0121356 1.5156e-05 0)
(-0.0121872 1.40909e-05 0)
(-0.0122349 1.30366e-05 0)
(-0.0122788 1.199e-05 0)
(-0.0123189 1.09481e-05 0)
(-0.0123553 9.90764e-06 0)
(-0.0123878 8.86527e-06 0)
(-0.0124166 7.81759e-06 0)
(-0.0124415 6.76117e-06 0)
(-0.0124626 5.6926e-06 0)
(-0.0124798 4.60842e-06 0)
(-0.012493 3.50511e-06 0)
(-0.0125022 2.37907e-06 0)
(-0.0125072 1.22672e-06 0)
(-0.0125081 4.45249e-08 0)
(-0.0125046 -1.17092e-06 0)
(-0.0124966 -2.42294e-06 0)
(-0.0124841 -3.71484e-06 0)
(-0.0124669 -5.0499e-06 0)
(-0.0124448 -6.43142e-06 0)
(-0.0124176 -7.86259e-06 0)
(-0.0123853 -9.34643e-06 0)
(-0.0123475 -1.08858e-05 0)
(-0.0123042 -1.24832e-05 0)
(-0.0122551 -1.41411e-05 0)
(-0.0122 -1.58616e-05 0)
(-0.0121387 -1.76468e-05 0)
(-0.012071 -1.94983e-05 0)
(-0.0119966 -2.14174e-05 0)
(-0.0119153 -2.34052e-05 0)
(-0.0118269 -2.54623e-05 0)
(-0.0117312 -2.75888e-05 0)
(-0.011628 -2.97845e-05 0)
(-0.0115169 -3.20486e-05 0)
(-0.0113978 -3.43797e-05 0)
(-0.0112705 -3.67757e-05 0)
(-0.0111348 -3.92342e-05 0)
(-0.0109904 -4.17518e-05 0)
(-0.0108372 -4.43247e-05 0)
(-0.0106751 -4.69481e-05 0)
(-0.0105038 -4.96165e-05 0)
(-0.0103232 -5.23235e-05 0)
(-0.0101333 -5.50616e-05 0)
(-0.00993394 -5.78229e-05 0)
(-0.00972511 -6.05981e-05 0)
(-0.00950679 -6.33772e-05 0)
(-0.009279 -6.61492e-05 0)
(-0.00904181 -6.89018e-05 0)
(-0.00879532 -7.16219e-05 0)
(-0.0085397 -7.42953e-05 0)
(-0.00827514 -7.69066e-05 0)
(-0.00800191 -7.94397e-05 0)
(-0.00772032 -8.1877e-05 0)
(-0.00743075 -8.42004e-05 0)
(-0.00713365 -8.63904e-05 0)
(-0.00682952 -8.84268e-05 0)
(-0.00651894 -9.02884e-05 0)
(-0.00620256 -9.19532e-05 0)
(-0.00588109 -9.33984e-05 0)
(-0.00555536 -9.46004e-05 0)
(-0.00522623 -9.5535e-05 0)
(-0.00489466 -9.61775e-05 0)
(-0.0045617 -9.65027e-05 0)
(-0.00422848 -9.6485e-05 0)
(-0.00389619 -9.60985e-05 0)
(-0.00356613 -9.53173e-05 0)
(-0.00323967 -9.41151e-05 0)
(-0.00291826 -9.24662e-05 0)
(-0.00260343 -9.03446e-05 0)
(-0.00229678 -8.77249e-05 0)
(-0.002 -8.45823e-05 0)
(-0.00171483 -8.08926e-05 0)
(-0.00144306 -7.66328e-05 0)
(-0.00118656 -7.17813e-05 0)
(-0.000947213 -6.63188e-05 0)
(-0.000726945 -6.02292e-05 0)
(-0.000527675 -5.35009e-05 0)
(-0.000351298 -4.613e-05 0)
(-0.000199635 -3.81243e-05 0)
(-7.4378e-05 -2.95125e-05 0)
(2.30151e-05 -2.03587e-05 0)
(9.147e-05 -1.07913e-05 0)
(0.000130557 -1.06025e-06 0)
(0.000140909 8.35531e-06 0)
(0.000124844 1.65509e-05 0)
(8.77258e-05 2.17939e-05 0)
(4.20476e-05 2.08639e-05 0)
(9.63414e-06 9.63291e-06 0)
(1.85594e-05 -3.70807e-05 0)
(7.03761e-05 -7.02976e-05 0)
(0.000132084 -6.77637e-05 0)
(0.000170195 -4.20988e-05 0)
(0.000163431 -3.16234e-06 0)
(0.00010035 4.2712e-05 0)
(-2.53169e-05 9.15529e-05 0)
(-0.000216307 0.000140877 0)
(-0.00047283 0.000189139 0)
(-0.00079338 0.000235377 0)
(-0.00117531 0.000279002 0)
(-0.00161524 0.000319658 0)
(-0.00210929 0.000357148 0)
(-0.00265331 0.000391382 0)
(-0.00324298 0.000422342 0)
(-0.00387396 0.000450065 0)
(-0.0045419 0.000474622 0)
(-0.00524255 0.00049611 0)
(-0.00597175 0.000514645 0)
(-0.00672551 0.000530356 0)
(-0.00749998 0.000543381 0)
(-0.00829149 0.000553863 0)
(-0.00909656 0.000561949 0)
(-0.00991191 0.000567787 0)
(-0.0107345 0.000571526 0)
(-0.0115613 0.000573312 0)
(-0.0123898 0.00057329 0)
(-0.0132174 0.000571602 0)
(-0.0140419 0.000568385 0)
(-0.0148611 0.000563773 0)
(-0.0156731 0.000557895 0)
(-0.0164761 0.000550873 0)
(-0.0172686 0.000542827 0)
(-0.0180492 0.00053387 0)
(-0.0188166 0.000524108 0)
(-0.0195697 0.000513643 0)
(-0.0203076 0.000502571 0)
(-0.0210293 0.000490981 0)
(-0.0217342 0.000478958 0)
(-0.0224217 0.00046658 0)
(-0.0230913 0.00045392 0)
(-0.0237426 0.000441046 0)
(-0.0243754 0.00042802 0)
(-0.0249893 0.000414899 0)
(-0.0255844 0.000401734 0)
(-0.0261606 0.000388573 0)
(-0.0267178 0.000375458 0)
(-0.0272561 0.000362428 0)
(-0.0277757 0.000349515 0)
(-0.0282768 0.000336751 0)
(-0.0287595 0.00032416 0)
(-0.0292241 0.000311765 0)
(-0.0296709 0.000299585 0)
(-0.0301002 0.000287635 0)
(-0.0305122 0.000275927 0)
(-0.0309075 0.000264472 0)
(-0.0312862 0.000253275 0)
(-0.0316488 0.00024234 0)
(-0.0319957 0.000231671 0)
(-0.0323271 0.000221265 0)
(-0.0326436 0.00021112 0)
(-0.0329454 0.000201232 0)
(-0.0332329 0.000191595 0)
(-0.0335064 0.000182201 0)
(-0.0337663 0.000173039 0)
(-0.034013 0.000164098 0)
(-0.0342466 0.000155366 0)
(-0.0344675 0.00014683 0)
(-0.034676 0.000138474 0)
(-0.0348723 0.000130282 0)
(-0.0350567 0.000122237 0)
(-0.0352292 0.000114322 0)
(-0.0353902 0.000106517 0)
(-0.0355396 9.88039e-05 0)
(-0.0356777 9.11613e-05 0)
(-0.0358046 8.35685e-05 0)
(-0.0359202 7.60043e-05 0)
(-0.0360247 6.84467e-05 0)
(-0.0361179 6.08734e-05 0)
(-0.0361999 5.32618e-05 0)
(-0.0362706 4.55888e-05 0)
(-0.0363299 3.78311e-05 0)
(-0.0363776 2.99651e-05 0)
(-0.0364136 2.19672e-05 0)
(-0.0364376 1.38138e-05 0)
(-0.0364494 5.48136e-06 0)
(-0.0364489 -3.05344e-06 0)
(-0.0364355 -1.18136e-05 0)
(-0.036409 -2.08216e-05 0)
(-0.0363691 -3.01e-05 0)
(-0.0363153 -3.96703e-05 0)
(-0.0362473 -4.95538e-05 0)
(-0.0361644 -5.97708e-05 0)
(-0.0360663 -7.03408e-05 0)
(-0.0359524 -8.12817e-05 0)
(-0.0358223 -9.26103e-05 0)
(-0.0356752 -0.000104342 0)
(-0.0355108 -0.00011649 0)
(-0.0353282 -0.000129066 0)
(-0.035127 -0.000142081 0)
(-0.0349066 -0.000155542 0)
(-0.0346662 -0.000169453 0)
(-0.0344053 -0.000183818 0)
(-0.0341232 -0.000198636 0)
(-0.0338193 -0.000213902 0)
(-0.0334929 -0.000229609 0)
(-0.0331435 -0.000245747 0)
(-0.0327705 -0.000262298 0)
(-0.0323732 -0.000279245 0)
(-0.0319513 -0.000296562 0)
(-0.0315042 -0.000314222 0)
(-0.0310314 -0.000332189 0)
(-0.0305325 -0.000350424 0)
(-0.0300073 -0.000368882 0)
(-0.0294555 -0.000387511 0)
(-0.0288769 -0.000406255 0)
(-0.0282714 -0.000425049 0)
(-0.0276391 -0.000443826 0)
(-0.02698 -0.000462506 0)
(-0.0262943 -0.000481009 0)
(-0.0255825 -0.000499243 0)
(-0.024845 -0.000517113 0)
(-0.0240824 -0.000534514 0)
(-0.0232955 -0.000551337 0)
(-0.0224853 -0.000567465 0)
(-0.0216529 -0.000582775 0)
(-0.0207995 -0.000597139 0)
(-0.0199266 -0.000610421 0)
(-0.019036 -0.000622482 0)
(-0.0181294 -0.000633177 0)
(-0.017209 -0.000642355 0)
(-0.0162771 -0.000649863 0)
(-0.0153361 -0.000655545 0)
(-0.0143888 -0.000659241 0)
(-0.0134381 -0.00066079 0)
(-0.0124873 -0.000660031 0)
(-0.0115397 -0.000656801 0)
(-0.0105989 -0.00065094 0)
(-0.00966884 -0.000642289 0)
(-0.00875346 -0.000630695 0)
(-0.00785702 -0.000616008 0)
(-0.00698396 -0.000598086 0)
(-0.00613888 -0.000576798 0)
(-0.00532653 -0.000552024 0)
(-0.00455177 -0.000523661 0)
(-0.00381959 -0.000491629 0)
(-0.00313498 -0.000455875 0)
(-0.00250295 -0.000416388 0)
(-0.00192841 -0.00037321 0)
(-0.00141606 -0.000326462 0)
(-0.000970273 -0.000276377 0)
(-0.000594873 -0.000223353 0)
(-0.00029284 -0.000168047 0)
(-6.58908e-05 -0.000111514 0)
(8.61499e-05 -5.54472e-05 0)
(0.000166251 -2.5804e-06 0)
(0.000181303 4.26819e-05 0)
(0.000143973 7.32487e-05 0)
(7.79801e-05 7.79476e-05 0)
(2.08625e-05 4.20327e-05 0)
(1.98103e-05 -7.863e-05 0)
(6.81257e-05 -0.000132107 0)
(0.000111232 -0.000110692 0)
(0.000110434 -3.94771e-05 0)
(4.04708e-05 6.29525e-05 0)
(-0.000113522 0.000183374 0)
(-0.000360446 0.000312641 0)
(-0.000704699 0.000444545 0)
(-0.00114722 0.000574909 0)
(-0.00168646 0.000700935 0)
(-0.00231907 0.000820777 0)
(-0.00304047 0.000933237 0)
(-0.00384523 0.00103758 0)
(-0.00472736 0.00113338 0)
(-0.00568056 0.00122046 0)
(-0.00669833 0.0012988 0)
(-0.00777415 0.0013685 0)
(-0.00890155 0.00142976 0)
(-0.0100742 0.00148285 0)
(-0.0112859 0.00152807 0)
(-0.0125306 0.00156576 0)
(-0.0138028 0.00159631 0)
(-0.0150969 0.00162008 0)
(-0.0164077 0.00163748 0)
(-0.0177305 0.0016489 0)
(-0.0190606 0.00165475 0)
(-0.0203937 0.00165543 0)
(-0.021726 0.00165132 0)
(-0.0230537 0.0016428 0)
(-0.0243735 0.00163026 0)
(-0.0256822 0.00161405 0)
(-0.0269771 0.00159451 0)
(-0.0282556 0.001572 0)
(-0.0295153 0.00154681 0)
(-0.0307544 0.00151927 0)
(-0.0319708 0.00148965 0)
(-0.0331632 0.00145823 0)
(-0.03433 0.00142527 0)
(-0.0354701 0.00139102 0)
(-0.0365826 0.00135569 0)
(-0.0376665 0.0013195 0)
(-0.0387213 0.00128264 0)
(-0.0397465 0.00124529 0)
(-0.0407416 0.00120762 0)
(-0.0417065 0.00116978 0)
(-0.042641 0.00113191 0)
(-0.0435451 0.00109413 0)
(-0.044419 0.00105654 0)
(-0.0452627 0.00101926 0)
(-0.0460765 0.000982372 0)
(-0.0468608 0.000945945 0)
(-0.0476159 0.00091005 0)
(-0.0483422 0.000874743 0)
(-0.0490402 0.000840068 0)
(-0.0497105 0.000806065 0)
(-0.0503534 0.000772762 0)
(-0.0509697 0.00074018 0)
(-0.0515597 0.000708332 0)
(-0.0521242 0.000677226 0)
(-0.0526638 0.000646861 0)
(-0.0531788 0.00061723 0)
(-0.0536701 0.000588324 0)
(-0.054138 0.000560123 0)
(-0.0545832 0.000532606 0)
(-0.0550062 0.000505746 0)
(-0.0554074 0.000479513 0)
(-0.0557874 0.00045387 0)
(-0.0561467 0.00042878 0)
(-0.0564856 0.0004042 0)
(-0.0568045 0.000380084 0)
(-0.0571037 0.000356384 0)
(-0.0573836 0.00033305 0)
(-0.0576445 0.000310028 0)
(-0.0578865 0.000287261 0)
(-0.0581099 0.000264694 0)
(-0.0583148 0.000242265 0)
(-0.0585012 0.000219915 0)
(-0.0586691 0.000197581 0)
(-0.0588187 0.000175198 0)
(-0.0589498 0.000152702 0)
(-0.0590622 0.000130027 0)
(-0.0591559 0.000107106 0)
(-0.0592306 8.38729e-05 0)
(-0.0592859 6.02601e-05 0)
(-0.0593217 3.62008e-05 0)
(-0.0593375 1.16284e-05 0)
(-0.0593328 -1.35233e-05 0)
(-0.0593072 -3.932e-05 0)
(-0.0592602 -6.58261e-05 0)
(-0.0591911 -9.31047e-05 0)
(-0.0590993 -0.000121217 0)
(-0.0589841 -0.000150223 0)
(-0.0588448 -0.000180179 0)
(-0.0586807 -0.000211138 0)
(-0.0584908 -0.000243152 0)
(-0.0582745 -0.000276266 0)
(-0.0580307 -0.000310523 0)
(-0.0577585 -0.000345961 0)
(-0.057457 -0.000382611 0)
(-0.0571253 -0.0004205 0)
(-0.0567624 -0.000459646 0)
(-0.0563673 -0.000500064 0)
(-0.0559389 -0.000541755 0)
(-0.0554763 -0.000584717 0)
(-0.0549785 -0.000628934 0)
(-0.0544445 -0.000674383 0)
(-0.0538735 -0.000721029 0)
(-0.0532644 -0.000768826 0)
(-0.0526164 -0.000817714 0)
(-0.0519288 -0.000867623 0)
(-0.0512007 -0.000918465 0)
(-0.0504315 -0.00097014 0)
(-0.0496207 -0.00102253 0)
(-0.0487677 -0.00107551 0)
(-0.0478721 -0.00112892 0)
(-0.0469338 -0.00118261 0)
(-0.0459527 -0.00123638 0)
(-0.0449287 -0.00129004 0)
(-0.0438622 -0.00134337 0)
(-0.0427535 -0.00139612 0)
(-0.0416033 -0.00144804 0)
(-0.0404123 -0.00149885 0)
(-0.0391816 -0.00154826 0)
(-0.0379125 -0.00159595 0)
(-0.0366066 -0.0016416 0)
(-0.0352656 -0.00168484 0)
(-0.0338917 -0.00172533 0)
(-0.0324872 -0.00176266 0)
(-0.0310549 -0.00179646 0)
(-0.0295977 -0.00182631 0)
(-0.0281191 -0.00185179 0)
(-0.0266225 -0.00187246 0)
(-0.0251122 -0.0018879 0)
(-0.0235923 -0.00189765 0)
(-0.0220677 -0.00190128 0)
(-0.0205433 -0.00189833 0)
(-0.0190244 -0.00188836 0)
(-0.0175169 -0.00187093 0)
(-0.0160267 -0.00184563 0)
(-0.0145602 -0.00181202 0)
(-0.0131239 -0.00176974 0)
(-0.0117248 -0.00171841 0)
(-0.01037 -0.0016577 0)
(-0.00906686 -0.00158734 0)
(-0.00782277 -0.00150711 0)
(-0.00664531 -0.00141686 0)
(-0.00554204 -0.00131654 0)
(-0.0045204 -0.00120626 0)
(-0.00358762 -0.00108627 0)
(-0.00275048 -0.000957099 0)
(-0.00201514 -0.000819609 0)
(-0.00138677 -0.000675154 0)
(-0.000869135 -0.000525791 0)
(-0.000464032 -0.00037461 0)
(-0.000170461 -0.000226226 0)
(1.64077e-05 -8.75087e-05 0)
(0.000106418 3.13582e-05 0)
(0.000116096 0.000115548 0)
(7.35491e-05 0.000144009 0)
(2.18477e-05 8.77547e-05 0)
(1.55812e-05 -0.000113675 0)
(4.29313e-05 -0.000170694 0)
(4.09133e-05 -0.000110103 0)
(-2.80959e-05 2.9705e-05 0)
(-0.000189796 0.000221183 0)
(-0.000460379 0.00044389 0)
(-0.000849917 0.000682958 0)
(-0.00136364 0.000927796 0)
(-0.00200293 0.00117093 0)
(-0.00276618 0.00140714 0)
(-0.00364962 0.00163281 0)
(-0.00464783 0.00184551 0)
(-0.00575427 0.00204363 0)
(-0.00696157 0.00222621 0)
(-0.00826185 0.00239272 0)
(-0.00964696 0.002543 0)
(-0.0111086 0.00267713 0)
(-0.0126384 0.00279537 0)
(-0.0142283 0.00289813 0)
(-0.0158701 0.00298595 0)
(-0.0175561 0.00305941 0)
(-0.0192789 0.00311918 0)
(-0.0210312 0.00316596 0)
(-0.0228062 0.00320046 0)
(-0.0245976 0.00322344 0)
(-0.0263991 0.00323563 0)
(-0.0282051 0.00323778 0)
(-0.0300103 0.00323063 0)
(-0.0318099 0.00321491 0)
(-0.0335991 0.00319132 0)
(-0.035374 0.00316056 0)
(-0.0371306 0.00312329 0)
(-0.0388655 0.00308016 0)
(-0.0405756 0.00303178 0)
(-0.0422581 0.00297875 0)
(-0.0439106 0.00292161 0)
(-0.0455308 0.0028609 0)
(-0.0471169 0.00279712 0)
(-0.0486673 0.00273075 0)
(-0.0501805 0.00266221 0)
(-0.0516555 0.00259192 0)
(-0.0530912 0.00252027 0)
(-0.0544871 0.0024476 0)
(-0.0558425 0.00237424 0)
(-0.0571572 0.00230048 0)
(-0.0584308 0.0022266 0)
(-0.0596635 0.00215283 0)
(-0.0608551 0.00207941 0)
(-0.062006 0.00200652 0)
(-0.0631165 0.00193434 0)
(-0.0641868 0.00186302 0)
(-0.0652176 0.00179269 0)
(-0.0662093 0.00172346 0)
(-0.0671626 0.00165543 0)
(-0.0680781 0.00158867 0)
(-0.0689564 0.00152325 0)
(-0.0697984 0.00145919 0)
(-0.0706047 0.00139654 0)
(-0.0713761 0.00133531 0)
(-0.0721134 0.0012755 0)
(-0.0728174 0.0012171 0)
(-0.0734887 0.00116008 0)
(-0.0741282 0.00110442 0)
(-0.0747365 0.00105008 0)
(-0.0753144 0.000997 0)
(-0.0758625 0.000945126 0)
(-0.0763815 0.000894389 0)
(-0.0768719 0.000844716 0)
(-0.0773343 0.000796024 0)
(-0.0777693 0.000748227 0)
(-0.0781772 0.000701231 0)
(-0.0785586 0.000654939 0)
(-0.0789137 0.000609246 0)
(-0.0792428 0.000564044 0)
(-0.0795462 0.000519223 0)
(-0.079824 0.000474667 0)
(-0.0800764 0.000430258 0)
(-0.0803035 0.000385874 0)
(-0.080505 0.000341392 0)
(-0.0806811 0.000296686 0)
(-0.0808315 0.000251629 0)
(-0.080956 0.000206091 0)
(-0.0810543 0.000159944 0)
(-0.081126 0.000113058 0)
(-0.0811707 6.53039e-05 0)
(-0.0811878 1.65517e-05 0)
(-0.0811768 -3.33259e-05 0)
(-0.0811371 -8.44553e-05 0)
(-0.0810678 -0.000136961 0)
(-0.0809683 -0.000190963 0)
(-0.0808376 -0.000246581 0)
(-0.0806748 -0.000303928 0)
(-0.080479 -0.000363112 0)
(-0.0802492 -0.000424236 0)
(-0.0799842 -0.000487395 0)
(-0.0796829 -0.000552679 0)
(-0.0793442 -0.000620167 0)
(-0.0789668 -0.00068993 0)
(-0.0785495 -0.000762027 0)
(-0.078091 -0.000836506 0)
(-0.0775899 -0.000913402 0)
(-0.0770451 -0.000992735 0)
(-0.0764551 -0.00107451 0)
(-0.0758187 -0.00115872 0)
(-0.0751346 -0.00124532 0)
(-0.0744014 -0.00133427 0)
(-0.0736181 -0.00142551 0)
(-0.0727833 -0.00151892 0)
(-0.0718959 -0.00161441 0)
(-0.070955 -0.00171181 0)
(-0.0699595 -0.00181097 0)
(-0.0689086 -0.00191168 0)
(-0.0678016 -0.00201372 0)
(-0.0666378 -0.00211682 0)
(-0.0654169 -0.0022207 0)
(-0.0641385 -0.00232503 0)
(-0.0628025 -0.00242945 0)
(-0.0614092 -0.00253357 0)
(-0.0599587 -0.00263695 0)
(-0.0584519 -0.00273914 0)
(-0.0568894 -0.00283964 0)
(-0.0552725 -0.0029379 0)
(-0.0536026 -0.00303336 0)
(-0.0518815 -0.0031254 0)
(-0.0501113 -0.00321339 0)
(-0.0482945 -0.00329666 0)
(-0.0464339 -0.00337449 0)
(-0.0445328 -0.00344616 0)
(-0.0425948 -0.0035109 0)
(-0.040624 -0.00356793 0)
(-0.0386248 -0.00361644 0)
(-0.0366022 -0.00365562 0)
(-0.0345616 -0.00368462 0)
(-0.0325087 -0.0037026 0)
(-0.0304498 -0.00370872 0)
(-0.0283917 -0.00370214 0)
(-0.0263414 -0.00368202 0)
(-0.0243065 -0.00364755 0)
(-0.0222949 -0.00359794 0)
(-0.0203151 -0.00353243 0)
(-0.0183757 -0.00345033 0)
(-0.0164857 -0.00335098 0)
(-0.0146544 -0.00323384 0)
(-0.0128914 -0.00309842 0)
(-0.0112063 -0.00294442 0)
(-0.00960874 -0.00277165 0)
(-0.00810838 -0.00258017 0)
(-0.00671461 -0.0023703 0)
(-0.00543646 -0.00214274 0)
(-0.00428229 -0.00189867 0)
(-0.00325954 -0.00163996 0)
(-0.00237431 -0.00136936 0)
(-0.00163089 -0.00109091 0)
(-0.00103107 -0.000810423 0)
(-0.000573376 -0.000536163 0)
(-0.000252028 -0.000279882 0)
(-5.58438e-05 -5.81449e-05 0)
(3.31964e-05 0.000106144 0)
(4.35694e-05 0.000181875 0)
(1.67365e-05 0.000125147 0)
(8.69562e-06 -0.000131059 0)
(4.49543e-06 -0.000164837 0)
(-6.07318e-05 -4.07233e-05 0)
(-0.000218711 0.000191239 0)
(-0.000492948 0.000495201 0)
(-0.000899424 0.000843908 0)
(-0.0014482 0.0012169 0)
(-0.00214454 0.00159911 0)
(-0.00298975 0.00197953 0)
(-0.00398206 0.00235021 0)
(-0.00511723 0.00270548 0)
(-0.00638919 0.00304136 0)
(-0.0077905 0.00335517 0)
(-0.00931272 0.00364518 0)
(-0.0109467 0.00391039 0)
(-0.012683 0.00415035 0)
(-0.0145118 0.00436503 0)
(-0.0164232 0.00455473 0)
(-0.0184076 0.00472 0)
(-0.0204553 0.00486158 0)
(-0.022557 0.00498033 0)
(-0.0247037 0.00507725 0)
(-0.0268866 0.00515338 0)
(-0.0290976 0.00520985 0)
(-0.0313288 0.00524778 0)
(-0.0335727 0.00526836 0)
(-0.0358224 0.00527275 0)
(-0.0380713 0.0052621 0)
(-0.0403135 0.00523757 0)
(-0.0425432 0.00520029 0)
(-0.0447555 0.00515135 0)
(-0.0469455 0.00509182 0)
(-0.049109 0.00502273 0)
(-0.051242 0.00494506 0)
(-0.0533412 0.00485977 0)
(-0.0554035 0.00476775 0)
(-0.057426 0.00466985 0)
(-0.0594065 0.00456689 0)
(-0.0613429 0.00445963 0)
(-0.0632334 0.00434877 0)
(-0.0650766 0.00423499 0)
(-0.0668713 0.0041189 0)
(-0.0686166 0.00400108 0)
(-0.0703117 0.00388205 0)
(-0.0719563 0.00376229 0)
(-0.07355 0.00364226 0)
(-0.0750927 0.00352234 0)
(-0.0765845 0.0034029 0)
(-0.0780256 0.00328425 0)
(-0.0794163 0.0031667 0)
(-0.0807571 0.00305047 0)
(-0.0820485 0.0029358 0)
(-0.0832913 0.00282286 0)
(-0.084486 0.00271181 0)
(-0.0856335 0.00260277 0)
(-0.0867347 0.00249585 0)
(-0.0877903 0.00239112 0)
(-0.0888013 0.00228862 0)
(-0.0897686 0.00218838 0)
(-0.0906932 0.00209042 0)
(-0.0915759 0.00199471 0)
(-0.0924176 0.00190123 0)
(-0.0932194 0.00180992 0)
(-0.093982 0.00172071 0)
(-0.0947064 0.00163354 0)
(-0.0953933 0.0015483 0)
(-0.0960435 0.00146489 0)
(-0.0966577 0.00138318 0)
(-0.0972367 0.00130305 0)
(-0.097781 0.00122436 0)
(-0.0982913 0.00114695 0)
(-0.0987679 0.00107067 0)
(-0.0992114 0.000995354 0)
(-0.0996221 0.000920825 0)
(-0.1 0.000846905 0)
(-0.100346 0.000773405 0)
(-0.10066 0.000700137 0)
(-0.100941 0.000626903 0)
(-0.101191 0.000553505 0)
(-0.101408 0.00047974 0)
(-0.101593 0.000405403 0)
(-0.101745 0.000330287 0)
(-0.101863 0.000254181 0)
(-0.101949 0.000176879 0)
(-0.102 9.81694e-05 0)
(-0.102016 1.78462e-05 0)
(-0.101997 -6.42966e-05 0)
(-0.101941 -0.000148462 0)
(-0.101849 -0.000234849 0)
(-0.101718 -0.000323652 0)
(-0.101548 -0.00041506 0)
(-0.101337 -0.000509255 0)
(-0.101086 -0.000606409 0)
(-0.100791 -0.000706687 0)
(-0.100452 -0.000810241 0)
(-0.100068 -0.00091721 0)
(-0.0996369 -0.00102772 0)
(-0.0991574 -0.00114189 0)
(-0.0986279 -0.0012598 0)
(-0.0980469 -0.00138153 0)
(-0.0974128 -0.00150713 0)
(-0.096724 -0.00163663 0)
(-0.095979 -0.00177003 0)
(-0.0951761 -0.00190732 0)
(-0.0943138 -0.00204843 0)
(-0.0933905 -0.00219328 0)
(-0.0924047 -0.00234175 0)
(-0.0913551 -0.00249369 0)
(-0.0902402 -0.00264889 0)
(-0.0890589 -0.00280712 0)
(-0.0878099 -0.00296811 0)
(-0.0864923 -0.00313152 0)
(-0.0851052 -0.00329699 0)
(-0.0836479 -0.00346408 0)
(-0.0821199 -0.00363233 0)
(-0.0805209 -0.00380121 0)
(-0.0788509 -0.00397013 0)
(-0.0771101 -0.00413845 0)
(-0.0752989 -0.00430549 0)
(-0.0734182 -0.00447049 0)
(-0.0714691 -0.00463263 0)
(-0.069453 -0.00479106 0)
(-0.0673718 -0.00494486 0)
(-0.0652276 -0.00509304 0)
(-0.0630233 -0.00523456 0)
(-0.0607617 -0.00536836 0)
(-0.0584466 -0.0054933 0)
(-0.0560819 -0.0056082 0)
(-0.0536721 -0.00571184 0)
(-0.0512222 -0.00580297 0)
(-0.0487378 -0.0058803 0)
(-0.0462249 -0.00594253 0)
(-0.0436901 -0.00598832 0)
(-0.0411406 -0.00601635 0)
(-0.0385839 -0.00602528 0)
(-0.0360283 -0.00601377 0)
(-0.0334826 -0.00598053 0)
(-0.0309557 -0.00592429 0)
(-0.0284576 -0.00584382 0)
(-0.0259982 -0.00573798 0)
(-0.023588 -0.00560569 0)
(-0.021238 -0.00544601 0)
(-0.0189592 -0.00525812 0)
(-0.0167631 -0.00504139 0)
(-0.0146611 -0.00479541 0)
(-0.0126647 -0.00452006 0)
(-0.0107852 -0.00421558 0)
(-0.00903355 -0.00388267 0)
(-0.00742025 -0.00352264 0)
(-0.00595491 -0.00313758 0)
(-0.00464595 -0.00273062 0)
(-0.00350025 -0.00230626 0)
(-0.00252257 -0.00187088 0)
(-0.00171493 -0.00143333 0)
(-0.00107587 -0.00100581 0)
(-0.000599562 -0.000605062 0)
(-0.000274822 -0.000253866 0)
(-8.38766e-05 1.73079e-05 0)
(-8.47714e-07 0.000168137 0)
(8.74004e-06 0.000141887 0)
(6.68426e-07 -0.000125862 0)
(-4.10579e-05 -0.000102912 0)
(-0.000181028 0.000112717 0)
(-0.000441994 0.000461974 0)
(-0.00084336 0.000901895 0)
(-0.0013997 0.00139915 0)
(-0.00212011 0.00192812 0)
(-0.00300912 0.00246944 0)
(-0.00406753 0.00300857 0)
(-0.00529304 0.00353475 0)
(-0.00668087 0.0040401 0)
(-0.0082243 0.00451894 0)
(-0.00991508 0.00496731 0)
(-0.0117439 0.00538259 0)
(-0.0137005 0.00576316 0)
(-0.0157743 0.00610819 0)
(-0.0179543 0.00641749 0)
(-0.0202294 0.00669133 0)
(-0.0225885 0.00693036 0)
(-0.0250208 0.0071355 0)
(-0.0275154 0.00730793 0)
(-0.0300622 0.00744896 0)
(-0.0326511 0.00756004 0)
(-0.0352725 0.00764272 0)
(-0.0379173 0.0076986 0)
(-0.040577 0.00772931 0)
(-0.0432435 0.00773651 0)
(-0.0459091 0.00772184 0)
(-0.0485668 0.00768695 0)
(-0.05121 0.00763344 0)
(-0.0538328 0.0075629 0)
(-0.0564295 0.00747686 0)
(-0.0589951 0.00737679 0)
(-0.0615252 0.00726414 0)
(-0.0640155 0.00714026 0)
(-0.0664624 0.00700647 0)
(-0.0688626 0.006864 0)
(-0.0712134 0.00671404 0)
(-0.0735123 0.00655768 0)
(-0.0757573 0.00639596 0)
(-0.0779465 0.00622987 0)
(-0.0800785 0.0060603 0)
(-0.0821522 0.00588809 0)
(-0.0841668 0.00571401 0)
(-0.0861217 0.00553878 0)
(-0.0880165 0.00536304 0)
(-0.0898509 0.00518738 0)
(-0.0916252 0.00501233 0)
(-0.0933395 0.00483836 0)
(-0.0949941 0.00466589 0)
(-0.0965896 0.00449529 0)
(-0.0981265 0.00432689 0)
(-0.0996057 0.00416095 0)
(-0.101028 0.00399771 0)
(-0.102394 0.00383736 0)
(-0.103705 0.00368003 0)
(-0.104962 0.00352585 0)
(-0.106166 0.00337489 0)
(-0.107318 0.00322719 0)
(-0.108419 0.00308277 0)
(-0.10947 0.00294161 0)
(-0.110472 0.00280365 0)
(-0.111427 0.00266884 0)
(-0.112335 0.00253708 0)
(-0.113197 0.00240826 0)
(-0.114014 0.00228224 0)
(-0.114788 0.00215886 0)
(-0.115518 0.00203795 0)
(-0.116207 0.00191933 0)
(-0.116853 0.00180279 0)
(-0.117459 0.00168811 0)
(-0.118025 0.00157507 0)
(-0.118551 0.00146341 0)
(-0.119038 0.0013529 0)
(-0.119485 0.00124326 0)
(-0.119894 0.00113423 0)
(-0.120264 0.00102553 0)
(-0.120596 0.000916871 0)
(-0.120889 0.000807968 0)
(-0.121144 0.000698526 0)
(-0.121359 0.000588244 0)
(-0.121535 0.000476822 0)
(-0.121672 0.000363958 0)
(-0.121768 0.000249347 0)
(-0.121823 0.000132686 0)
(-0.121837 1.3675e-05 0)
(-0.121808 -0.000107985 0)
(-0.121735 -0.000232589 0)
(-0.121619 -0.000360423 0)
(-0.121456 -0.00049177 0)
(-0.121247 -0.000626902 0)
(-0.120989 -0.00076608 0)
(-0.120683 -0.000909554 0)
(-0.120325 -0.00105756 0)
(-0.119914 -0.00121032 0)
(-0.119449 -0.00136802 0)
(-0.118929 -0.00153086 0)
(-0.118351 -0.00169899 0)
(-0.117714 -0.00187253 0)
(-0.117015 -0.00205159 0)
(-0.116254 -0.00223625 0)
(-0.115427 -0.00242653 0)
(-0.114534 -0.00262244 0)
(-0.113573 -0.00282395 0)
(-0.112541 -0.00303095 0)
(-0.111437 -0.00324333 0)
(-0.110259 -0.0034609 0)
(-0.109006 -0.00368344 0)
(-0.107676 -0.00391064 0)
(-0.106268 -0.00414216 0)
(-0.104779 -0.00437758 0)
(-0.10321 -0.00461644 0)
(-0.101559 -0.00485816 0)
(-0.0998259 -0.00510215 0)
(-0.0980093 -0.0053477 0)
(-0.0961093 -0.00559403 0)
(-0.0941258 -0.00584031 0)
(-0.0920591 -0.00608559 0)
(-0.08991 -0.00632886 0)
(-0.0876792 -0.00656904 0)
(-0.0853683 -0.00680494 0)
(-0.0829789 -0.0070353 0)
(-0.0805132 -0.00725878 0)
(-0.077974 -0.00747397 0)
(-0.0753642 -0.00767936 0)
(-0.0726877 -0.0078734 0)
(-0.0699485 -0.00805445 0)
(-0.0671514 -0.00822079 0)
(-0.0643016 -0.00837069 0)
(-0.0614051 -0.00850233 0)
(-0.0584683 -0.00861385 0)
(-0.0554984 -0.0087034 0)
(-0.0525029 -0.00876905 0)
(-0.0494902 -0.0088089 0)
(-0.0464691 -0.00882106 0)
(-0.0434493 -0.00880363 0)
(-0.0404407 -0.00875476 0)
(-0.037454 -0.00867268 0)
(-0.0345004 -0.00855568 0)
(-0.0315915 -0.00840216 0)
(-0.0287394 -0.00821067 0)
(-0.0259565 -0.00797993 0)
(-0.0232556 -0.00770887 0)
(-0.0206497 -0.00739671 0)
(-0.0181516 -0.00704301 0)
(-0.0157745 -0.00664776 0)
(-0.013531 -0.00621148 0)
(-0.0114335 -0.00573539 0)
(-0.00949358 -0.00522155 0)
(-0.0077219 -0.00467314 0)
(-0.00612783 -0.00409476 0)
(-0.00471896 -0.00349287 0)
(-0.00350068 -0.00287634 0)
(-0.00247554 -0.00225718 0)
(-0.00164264 -0.00165154 0)
(-0.000996954 -0.00108092 0)
(-0.000528358 -0.000573811 0)
(-0.000220679 -0.000167377 0)
(-5.27524e-05 9.02865e-05 0)
(-4.33642e-07 0.000132728 0)
(-7.72244e-06 -9.57965e-05 0)
(-8.99862e-05 2.18221e-05 0)
(-0.000311406 0.000359947 0)
(-0.000684137 0.000853184 0)
(-0.00122225 0.00145291 0)
(-0.00193799 0.00212067 0)
(-0.00283872 0.00282629 0)
(-0.0039276 0.00354648 0)
(-0.00520444 0.00426338 0)
(-0.00666611 0.00496347 0)
(-0.00830711 0.00563663 0)
(-0.0101199 0.00627543 0)
(-0.0120956 0.00687456 0)
(-0.0142238 0.00743038 0)
(-0.0164935 0.00794058 0)
(-0.0188931 0.00840388 0)
(-0.0214105 0.00881985 0)
(-0.0240336 0.00918867 0)
(-0.0267501 0.00951108 0)
(-0.029548 0.00978819 0)
(-0.0324154 0.0100214 0)
(-0.0353409 0.0102125 0)
(-0.0383133 0.0103633 0)
(-0.0413219 0.0104757 0)
(-0.0443566 0.0105519 0)
(-0.0474077 0.0105941 0)
(-0.0504662 0.0106044 0)
(-0.0535234 0.010585 0)
(-0.0565714 0.0105381 0)
(-0.0596028 0.0104659 0)
(-0.0626107 0.0103704 0)
(-0.065589 0.0102538 0)
(-0.0685318 0.010118 0)
(-0.071434 0.00996498 0)
(-0.074291 0.00979657 0)
(-0.0770984 0.00961453 0)
(-0.0798527 0.00942056 0)
(-0.0825507 0.00921625 0)
(-0.0851894 0.0090031 0)
(-0.0877665 0.00878254 0)
(-0.09028 0.00855587 0)
(-0.0927282 0.00832435 0)
(-0.0951098 0.00808911 0)
(-0.0974239 0.0078512 0)
(-0.0996697 0.00761161 0)
(-0.101847 0.00737121 0)
(-0.103955 0.00713081 0)
(-0.105994 0.00689115 0)
(-0.107964 0.00665286 0)
(-0.109866 0.00641653 0)
(-0.111701 0.00618266 0)
(-0.113468 0.00595171 0)
(-0.115169 0.00572404 0)
(-0.116804 0.00549997 0)
(-0.118376 0.00527977 0)
(-0.119884 0.00506365 0)
(-0.121329 0.00485175 0)
(-0.122714 0.00464419 0)
(-0.124039 0.00444103 0)
(-0.125305 0.00424229 0)
(-0.126514 0.00404795 0)
(-0.127667 0.00385796 0)
(-0.128764 0.00367221 0)
(-0.129808 0.00349059 0)
(-0.130799 0.00331294 0)
(-0.131739 0.00313909 0)
(-0.132628 0.00296881 0)
(-0.133467 0.00280189 0)
(-0.134257 0.00263805 0)
(-0.134999 0.00247704 0)
(-0.135694 0.00231855 0)
(-0.136343 0.00216226 0)
(-0.136945 0.00200787 0)
(-0.137502 0.00185501 0)
(-0.138014 0.00170334 0)
(-0.138481 0.00155248 0)
(-0.138903 0.00140207 0)
(-0.139281 0.00125171 0)
(-0.139613 0.00110101 0)
(-0.139901 0.000949563 0)
(-0.140144 0.000796976 0)
(-0.140342 0.000642834 0)
(-0.140493 0.000486726 0)
(-0.140598 0.000328241 0)
(-0.140655 0.000166968 0)
(-0.140664 2.49858e-06 0)
(-0.140625 -0.000165572 0)
(-0.140534 -0.000337641 0)
(-0.140393 -0.000514099 0)
(-0.140199 -0.000695325 0)
(-0.139951 -0.000881686 0)
(-0.139647 -0.00107354 0)
(-0.139287 -0.00127121 0)
(-0.138868 -0.00147503 0)
(-0.138388 -0.00168528 0)
(-0.137846 -0.00190224 0)
(-0.13724 -0.00212614 0)
(-0.136567 -0.0023572 0)
(-0.135827 -0.00259557 0)
(-0.135016 -0.00284141 0)
(-0.134134 -0.0030948 0)
(-0.133177 -0.00335578 0)
(-0.132143 -0.00362435 0)
(-0.131032 -0.00390044 0)
(-0.12984 -0.00418395 0)
(-0.128565 -0.00447467 0)
(-0.127207 -0.00477237 0)
(-0.125762 -0.00507671 0)
(-0.124229 -0.00538729 0)
(-0.122607 -0.00570364 0)
(-0.120894 -0.00602518 0)
(-0.119089 -0.00635126 0)
(-0.11719 -0.00668113 0)
(-0.115198 -0.00701393 0)
(-0.113111 -0.00734871 0)
(-0.11093 -0.00768443 0)
(-0.108653 -0.00801992 0)
(-0.106282 -0.00835391 0)
(-0.103817 -0.00868504 0)
(-0.101259 -0.0090118 0)
(-0.0986109 -0.0093326 0)
(-0.0958733 -0.00964573 0)
(-0.0930493 -0.00994938 0)
(-0.0901417 -0.0102416 0)
(-0.0871542 -0.0105204 0)
(-0.0840909 -0.0107837 0)
(-0.0809566 -0.0110292 0)
(-0.0777567 -0.0112546 0)
(-0.0744971 -0.0114576 0)
(-0.0711844 -0.0116358 0)
(-0.067826 -0.0117866 0)