0.0003125 	0.049844 	0.005 	0.297926 	0.145458 	0
0.0009375 	0.049844 	0.005 	0.392412 	0.126774 	0
0.0015625 	0.049844 	0.005 	0.551721 	0.0758406 	0
0.0021875 	0.049844 	0.005 	0.668166 	0.0439337 	0
0.0028125 	0.049844 	0.005 	0.738321 	0.026167 	0
0.0034375 	0.049844 	0.005 	0.783602 	0.0161981 	0
0.0040625 	0.049844 	0.005 	0.815226 	0.0105535 	0
0.0046875 	0.049844 	0.005 	0.83832 	0.00728569 	0
0.0053125 	0.049844 	0.005 	0.855832 	0.00531154 	0
0.0059375 	0.049844 	0.005 	0.869581 	0.00405377 	0
0.0065625 	0.049844 	0.005 	0.880687 	0.00320843 	0
0.0071875 	0.049844 	0.005 	0.889863 	0.00261216 	0
0.0078125 	0.049844 	0.005 	0.897581 	0.00217393 	0
0.0084375 	0.049844 	0.005 	0.90417 	0.00184083 	0
0.0090625 	0.049844 	0.005 	0.909864 	0.00158068 	0
0.0096875 	0.049844 	0.005 	0.914836 	0.00137301 	0
0.0103125 	0.049844 	0.005 	0.919216 	0.00120419 	0
0.0109375 	0.049844 	0.005 	0.923103 	0.00106488 	0
0.0115625 	0.049844 	0.005 	0.926577 	0.000948423 	0
0.0121875 	0.049844 	0.005 	0.9297 	0.000849981 	0
0.0128125 	0.049844 	0.005 	0.932521 	0.000765955 	0
0.0134375 	0.049844 	0.005 	0.935082 	0.000693617 	0
0.0140625 	0.049844 	0.005 	0.937416 	0.000630868 	0
0.0146875 	0.049844 	0.005 	0.939552 	0.000576068 	0
0.0153125 	0.049844 	0.005 	0.941513 	0.000527921 	0
0.0159375 	0.049844 	0.005 	0.943319 	0.000485389 	0
0.0165625 	0.049844 	0.005 	0.944988 	0.000447635 	0
0.0171875 	0.049844 	0.005 	0.946533 	0.000413976 	0
0.0178125 	0.049844 	0.005 	0.947968 	0.000383849 	0
0.0184375 	0.049844 	0.005 	0.949304 	0.000356787 	0
0.0190625 	0.049844 	0.005 	0.950549 	0.000332399 	0
0.0196875 	0.049844 	0.005 	0.951714 	0.000310358 	0
0.0203125 	0.049844 	0.005 	0.952804 	0.000290384 	0
0.0209375 	0.049844 	0.005 	0.953828 	0.000272241 	0
0.0215625 	0.049844 	0.005 	0.95479 	0.000255724 	0
0.0221875 	0.049844 	0.005 	0.955696 	0.000240658 	0
0.0228125 	0.049844 	0.005 	0.95655 	0.00022689 	0
0.0234375 	0.049844 	0.005 	0.957358 	0.000214288 	0
0.0240625 	0.049844 	0.005 	0.958122 	0.000202737 	0
0.0246875 	0.049844 	0.005 	0.958846 	0.000192133 	0
0.0253125 	0.049844 	0.005 	0.959534 	0.000182388 	0
0.0259375 	0.049844 	0.005 	0.960187 	0.000173422 	0
0.0265625 	0.049844 	0.005 	0.96081 	0.000165163 	0
0.0271875 	0.049844 	0.005 	0.961404 	0.000157549 	0
0.0278125 	0.049844 	0.005 	0.961971 	0.000150524 	0
0.0284375 	0.049844 	0.005 	0.962513 	0.000144037 	0
0.0290625 	0.049844 	0.005 	0.963032 	0.000138041 	0
0.0296875 	0.049844 	0.005 	0.96353 	0.000132496 	0
0.0303125 	0.049844 	0.005 	0.964009 	0.000127363 	0
0.0309375 	0.049844 	0.005 	0.964469 	0.000122609 	0
0.0315625 	0.049844 	0.005 	0.964912 	0.000118203 	0
0.0321875 	0.049844 	0.005 	0.965339 	0.000114116 	0
0.0328125 	0.049844 	0.005 	0.965752 	0.000110322 	0
0.0334375 	0.049844 	0.005 	0.966151 	0.000106795 	0
0.0340625 	0.049844 	0.005 	0.966537 	0.000103515 	0
0.0346875 	0.049844 	0.005 	0.966912 	0.00010046 	0
0.0353125 	0.049844 	0.005 	0.967275 	9.76107e-05 	0
0.0359375 	0.049844 	0.005 	0.967628 	9.4949e-05 	0
0.0365625 	0.049844 	0.005 	0.967971 	9.24578e-05 	0
0.0371875 	0.049844 	0.005 	0.968305 	9.01212e-05 	0
0.0378125 	0.049844 	0.005 	0.96863 	8.79241e-05 	0
0.0384375 	0.049844 	0.005 	0.968948 	8.58523e-05 	0
0.0390625 	0.049844 	0.005 	0.969258 	8.38922e-05 	0
0.0396875 	0.049844 	0.005 	0.96956 	8.2031e-05 	0
0.0403125 	0.049844 	0.005 	0.969856 	8.02561e-05 	0
0.0409375 	0.049844 	0.005 	0.970145 	7.85558e-05 	0
0.0415625 	0.049844 	0.005 	0.970428 	7.69187e-05 	0
0.0421875 	0.049844 	0.005 	0.970705 	7.53338e-05 	0
0.0428125 	0.049844 	0.005 	0.970976 	7.37907e-05 	0
0.0434375 	0.049844 	0.005 	0.971242 	7.2279e-05 	0
0.0440625 	0.049844 	0.005 	0.971502 	7.07888e-05 	0
0.0446875 	0.049844 	0.005 	0.971757 	6.93105e-05 	0
0.0453125 	0.049844 	0.005 	0.972006 	6.78348e-05 	0
0.0459375 	0.049844 	0.005 	0.97225 	6.63525e-05 	0
0.0465625 	0.049844 	0.005 	0.972489 	6.48549e-05 	0
0.0471875 	0.049844 	0.005 	0.972722 	6.33331e-05 	0
0.0478125 	0.049844 	0.005 	0.97295 	6.17784e-05 	0
0.0484375 	0.049844 	0.005 	0.973173 	6.01824e-05 	0
0.0490625 	0.049844 	0.005 	0.97339 	5.8537e-05 	0
0.0496875 	0.049844 	0.005 	0.973601 	5.68342e-05 	0
0.0503125 	0.049844 	0.005 	0.973806 	5.50662e-05 	0
0.0509375 	0.049844 	0.005 	0.974006 	5.32253e-05 	0
0.0515625 	0.049844 	0.005 	0.974199 	5.1304e-05 	0
0.0521875 	0.049844 	0.005 	0.974385 	4.92948e-05 	0
0.0528125 	0.049844 	0.005 	0.974565 	4.71902e-05 	0
0.0534375 	0.049844 	0.005 	0.974737 	4.49831e-05 	0
0.0540625 	0.049844 	0.005 	0.974902 	4.26664e-05 	0
0.0546875 	0.049844 	0.005 	0.975059 	4.02329e-05 	0
0.0553125 	0.049844 	0.005 	0.975209 	3.76761e-05 	0
0.0559375 	0.049844 	0.005 	0.975349 	3.49891e-05 	0
0.0565625 	0.049844 	0.005 	0.97548 	3.21652e-05 	0
0.0571875 	0.049844 	0.005 	0.975603 	2.91978e-05 	0
0.0578125 	0.049844 	0.005 	0.975715 	2.60807e-05 	0
0.0584375 	0.049844 	0.005 	0.975816 	2.28072e-05 	0
0.0590625 	0.049844 	0.005 	0.975907 	1.9371e-05 	0
0.0596875 	0.049844 	0.005 	0.975987 	1.57655e-05 	0
0.0603125 	0.049844 	0.005 	0.976054 	1.19843e-05 	0
0.0609375 	0.049844 	0.005 	0.976109 	8.02109e-06 	0
0.0615625 	0.049844 	0.005 	0.97615 	3.86936e-06 	0
0.0621875 	0.049844 	0.005 	0.976178 	-4.77426e-07 	0
0.0628125 	0.049844 	0.005 	0.976192 	-5.02598e-06 	0
0.0634375 	0.049844 	0.005 	0.97619 	-9.7828e-06 	0
0.0640625 	0.049844 	0.005 	0.976172 	-1.47558e-05 	0
0.0646875 	0.049844 	0.005 	0.976138 	-1.99524e-05 	0
0.0653125 	0.049844 	0.005 	0.976087 	-2.53802e-05 	0
0.0659375 	0.049844 	0.005 	0.976017 	-3.10476e-05 	0
0.0665625 	0.049844 	0.005 	0.975929 	-3.69636e-05 	0
0.0671875 	0.049844 	0.005 	0.97582 	-4.31378e-05 	0
0.0678125 	0.049844 	0.005 	0.975692 	-4.95809e-05 	0
0.0684375 	0.049844 	0.005 	0.975541 	-5.63043e-05 	0
0.0690625 	0.049844 	0.005 	0.975369 	-6.33208e-05 	0
0.0696875 	0.049844 	0.005 	0.975173 	-7.06446e-05 	0
0.0703125 	0.049844 	0.005 	0.974952 	-7.82914e-05 	0
0.0709375 	0.049844 	0.005 	0.974705 	-8.62791e-05 	0
0.0715625 	0.049844 	0.005 	0.974432 	-9.46277e-05 	0
0.0721875 	0.049844 	0.005 	0.974131 	-0.00010336 	0
0.0728125 	0.049844 	0.005 	0.973801 	-0.000112502 	0
0.0734375 	0.049844 	0.005 	0.973439 	-0.000122084 	0
0.0740625 	0.049844 	0.005 	0.973046 	-0.000132139 	0
0.0746875 	0.049844 	0.005 	0.972618 	-0.000142708 	0
0.0753125 	0.049844 	0.005 	0.972155 	-0.000153835 	0
0.0759375 	0.049844 	0.005 	0.971654 	-0.000165573 	0
0.0765625 	0.049844 	0.005 	0.971114 	-0.000177983 	0
0.0771875 	0.049844 	0.005 	0.970532 	-0.000191138 	0
0.0778125 	0.049844 	0.005 	0.969904 	-0.00020512 	0
0.0784375 	0.049844 	0.005 	0.96923 	-0.000220029 	0
0.0790625 	0.049844 	0.005 	0.968505 	-0.000235978 	0
0.0796875 	0.049844 	0.005 	0.967725 	-0.000253106 	0
0.0803125 	0.049844 	0.005 	0.966887 	-0.000271576 	0
0.0809375 	0.049844 	0.005 	0.965986 	-0.000291579 	0
0.0815625 	0.049844 	0.005 	0.965017 	-0.000313349 	0
0.0821875 	0.049844 	0.005 	0.963973 	-0.000337164 	0
0.0828125 	0.049844 	0.005 	0.962847 	-0.000363362 	0
0.0834375 	0.049844 	0.005 	0.961632 	-0.000392354 	0
0.0840625 	0.049844 	0.005 	0.960316 	-0.000424642 	0
0.0846875 	0.049844 	0.005 	0.95889 	-0.000460846 	0
0.0853125 	0.049844 	0.005 	0.957338 	-0.000501733 	0
0.0859375 	0.049844 	0.005 	0.955646 	-0.000548264 	0
0.0865625 	0.049844 	0.005 	0.953792 	-0.000601652 	0
0.0871875 	0.049844 	0.005 	0.951753 	-0.000663438 	0
0.0878125 	0.049844 	0.005 	0.9495 	-0.000735607 	0
0.0884375 	0.049844 	0.005 	0.946995 	-0.000820742 	0
0.0890625 	0.049844 	0.005 	0.944195 	-0.000922245 	0
0.0896875 	0.049844 	0.005 	0.941041 	-0.00104467 	0
0.0903125 	0.049844 	0.005 	0.937461 	-0.00119421 	0
0.0909375 	0.049844 	0.005 	0.933361 	-0.00137947 	0
0.0915625 	0.049844 	0.005 	0.928616 	-0.00161266 	0
0.0921875 	0.049844 	0.005 	0.923063 	-0.00191165 	0
0.0928125 	0.049844 	0.005 	0.916477 	-0.00230353 	0
0.0934375 	0.049844 	0.005 	0.908545 	-0.00283122 	0
0.0940625 	0.049844 	0.005 	0.898817 	-0.0035665 	0
0.0946875 	0.049844 	0.005 	0.886621 	-0.00463702 	0
0.0953125 	0.049844 	0.005 	0.870902 	-0.0062851 	0
0.0959375 	0.049844 	0.005 	0.849909 	-0.00899725 	0
0.0965625 	0.049844 	0.005 	0.820648 	-0.0137807 	0
0.0971875 	0.049844 	0.005 	0.777741 	-0.0227105 	0
0.0978125 	0.049844 	0.005 	0.709442 	-0.0399398 	0
0.0984375 	0.049844 	0.005 	0.590836 	-0.0731464 	0
0.0990625 	0.049844 	0.005 	0.418811 	-0.128365 	0
0.0996875 	0.049844 	0.005 	0.309565 	-0.149797 	0
