/*--------------------------------*- C++ -*----------------------------------*\
  =========                 |
  \\      /  F ield         | OpenFOAM: The Open Source CFD Toolbox
   \\    /   O peration     | Website:  https://openfoam.org
    \\  /    A nd           | Version:  7
     \\/     M anipulation  |
\*---------------------------------------------------------------------------*/
FoamFile
{
    version     2.0;
    format      ascii;
    class       volVectorField;
    location    "0.3625";
    object      U;
}
// * * * * * * * * * * * * * * * * * * * * * * * * * * * * * * * * * * * * * //

dimensions      [0 1 -1 0 0 0 0];

internalField   nonuniform List<vector> 
12800
(
(8.34201e-06 -8.30702e-06 0)
(3.71163e-05 -1.85277e-05 0)
(7.85567e-05 -1.97111e-05 0)
(0.000113268 -1.53551e-05 0)
(0.000130015 -8.3122e-06 0)
(0.000123903 -1.39423e-07 0)
(9.2788e-05 8.3432e-06 0)
(3.60569e-05 1.66961e-05 0)
(-4.59337e-05 2.4686e-05 0)
(-0.000152238 3.2193e-05 0)
(-0.000281555 3.9158e-05 0)
(-0.000432379 4.55558e-05 0)
(-0.000603089 5.13809e-05 0)
(-0.000792005 5.66398e-05 0)
(-0.000997438 6.13467e-05 0)
(-0.00121771 6.55205e-05 0)
(-0.00145118 6.91828e-05 0)
(-0.00169625 7.23569e-05 0)
(-0.00195139 7.50676e-05 0)
(-0.00221513 7.73403e-05 0)
(-0.00248607 7.92008e-05 0)
(-0.00276288 8.06744e-05 0)
(-0.00304432 8.17864e-05 0)
(-0.00332921 8.25617e-05 0)
(-0.00361645 8.30245e-05 0)
(-0.00390502 8.31989e-05 0)
(-0.00419397 8.31078e-05 0)
(-0.00448243 8.27735e-05 0)
(-0.00476959 8.22173e-05 0)
(-0.00505472 8.146e-05 0)
(-0.00533715 8.05211e-05 0)
(-0.00561628 7.94196e-05 0)
(-0.00589155 7.81731e-05 0)
(-0.0061625 7.67988e-05 0)
(-0.00642869 7.53124e-05 0)
(-0.00668973 7.37291e-05 0)
(-0.00694532 7.20629e-05 0)
(-0.00719515 7.0327e-05 0)
(-0.00743901 6.85338e-05 0)
(-0.00767669 6.66948e-05 0)
(-0.00790804 6.48203e-05 0)
(-0.00813294 6.29202e-05 0)
(-0.00835129 6.10033e-05 0)
(-0.00856304 5.90779e-05 0)
(-0.00876816 5.71512e-05 0)
(-0.00896663 5.523e-05 0)
(-0.00915848 5.33202e-05 0)
(-0.00934374 5.14272e-05 0)
(-0.00952246 4.95557e-05 0)
(-0.00969471 4.77097e-05 0)
(-0.00986058 4.58928e-05 0)
(-0.0100202 4.4108e-05 0)
(-0.0101736 4.23578e-05 0)
(-0.0103209 4.06443e-05 0)
(-0.0104623 3.89691e-05 0)
(-0.0105978 3.73333e-05 0)
(-0.0107277 3.57378e-05 0)
(-0.010852 3.41829e-05 0)
(-0.0109709 3.26687e-05 0)
(-0.0110845 3.1195e-05 0)
(-0.0111929 2.97612e-05 0)
(-0.0112963 2.83666e-05 0)
(-0.0113948 2.70101e-05 0)
(-0.0114886 2.56904e-05 0)
(-0.0115776 2.44059e-05 0)
(-0.0116622 2.3155e-05 0)
(-0.0117423 2.19356e-05 0)
(-0.0118181 2.07458e-05 0)
(-0.0118897 1.95833e-05 0)
(-0.0119571 1.84455e-05 0)
(-0.0120205 1.73301e-05 0)
(-0.0120798 1.62343e-05 0)
(-0.0121353 1.51553e-05 0)
(-0.0121868 1.40902e-05 0)
(-0.0122345 1.3036e-05 0)
(-0.0122785 1.19896e-05 0)
(-0.0123186 1.09478e-05 0)
(-0.0123549 9.90744e-06 0)
(-0.0123875 8.86514e-06 0)
(-0.0124162 7.81752e-06 0)
(-0.0124412 6.76116e-06 0)
(-0.0124623 5.69261e-06 0)
(-0.0124794 4.60839e-06 0)
(-0.0124926 3.50499e-06 0)
(-0.0125018 2.37889e-06 0)
(-0.0125069 1.22658e-06 0)
(-0.0125077 4.45397e-08 0)
(-0.0125042 -1.17069e-06 0)
(-0.0124963 -2.42254e-06 0)
(-0.0124838 -3.71437e-06 0)
(-0.0124665 -5.04949e-06 0)
(-0.0124444 -6.43111e-06 0)
(-0.0124173 -7.86234e-06 0)
(-0.0123849 -9.34616e-06 0)
(-0.0123472 -1.08854e-05 0)
(-0.0123039 -1.24827e-05 0)
(-0.0122547 -1.41404e-05 0)
(-0.0121996 -1.58609e-05 0)
(-0.0121383 -1.7646e-05 0)
(-0.0120706 -1.94974e-05 0)
(-0.0119962 -2.14165e-05 0)
(-0.011915 -2.34043e-05 0)
(-0.0118266 -2.54614e-05 0)
(-0.0117309 -2.75878e-05 0)
(-0.0116276 -2.97835e-05 0)
(-0.0115166 -3.20474e-05 0)
(-0.0113975 -3.43783e-05 0)
(-0.0112702 -3.67743e-05 0)
(-0.0111345 -3.92327e-05 0)
(-0.0109901 -4.17502e-05 0)
(-0.0108369 -4.43231e-05 0)
(-0.0106748 -4.69463e-05 0)
(-0.0105035 -4.96146e-05 0)
(-0.0103229 -5.23214e-05 0)
(-0.010133 -5.50595e-05 0)
(-0.00993367 -5.78207e-05 0)
(-0.00972485 -6.05959e-05 0)
(-0.00950653 -6.3375e-05 0)
(-0.00927875 -6.61469e-05 0)
(-0.00904157 -6.88994e-05 0)
(-0.00879509 -7.16194e-05 0)
(-0.00853947 -7.42927e-05 0)
(-0.00827492 -7.6904e-05 0)
(-0.0080017 -7.9437e-05 0)
(-0.00772012 -8.18744e-05 0)
(-0.00743057 -8.41977e-05 0)
(-0.00713347 -8.63878e-05 0)
(-0.00682935 -8.84242e-05 0)
(-0.00651878 -9.02859e-05 0)
(-0.00620241 -9.19507e-05 0)
(-0.00588095 -9.33959e-05 0)
(-0.00555523 -9.45978e-05 0)
(-0.00522611 -9.55325e-05 0)
(-0.00489455 -9.61751e-05 0)
(-0.0045616 -9.65003e-05 0)
(-0.00422838 -9.64826e-05 0)
(-0.0038961 -9.60961e-05 0)
(-0.00356605 -9.53149e-05 0)
(-0.0032396 -9.41129e-05 0)
(-0.0029182 -9.2464e-05 0)
(-0.00260338 -9.03424e-05 0)
(-0.00229674 -8.77227e-05 0)
(-0.00199997 -8.45801e-05 0)
(-0.0017148 -8.08906e-05 0)
(-0.00144304 -7.66309e-05 0)
(-0.00118654 -7.17796e-05 0)
(-0.000947202 -6.63172e-05 0)
(-0.000726939 -6.02276e-05 0)
(-0.000527673 -5.34995e-05 0)
(-0.000351299 -4.61289e-05 0)
(-0.000199639 -3.81237e-05 0)
(-7.43836e-05 -2.95123e-05 0)
(2.30076e-05 -2.03583e-05 0)
(9.14616e-05 -1.07908e-05 0)
(0.000130549 -1.06014e-06 0)
(0.000140903 8.35454e-06 0)
(0.00012484 1.65496e-05 0)
(8.77232e-05 2.1792e-05 0)
(4.20468e-05 2.08612e-05 0)
(9.63444e-06 9.63198e-06 0)
(1.85643e-05 -3.70646e-05 0)
(7.03818e-05 -7.02868e-05 0)
(0.000132086 -6.77589e-05 0)
(0.000170198 -4.2093e-05 0)
(0.000163428 -3.15683e-06 0)
(0.000100341 4.2714e-05 0)
(-2.53275e-05 9.15518e-05 0)
(-0.000216315 0.000140875 0)
(-0.000472833 0.000189137 0)
(-0.000793378 0.000235375 0)
(-0.00117531 0.000278999 0)
(-0.00161523 0.000319654 0)
(-0.00210927 0.000357142 0)
(-0.00265327 0.000391374 0)
(-0.00324294 0.000422334 0)
(-0.0038739 0.000450057 0)
(-0.00454183 0.000474613 0)
(-0.00524247 0.000496101 0)
(-0.00597166 0.000514635 0)
(-0.0067254 0.000530345 0)
(-0.00749985 0.000543369 0)
(-0.00829134 0.000553851 0)
(-0.00909639 0.000561936 0)
(-0.00991173 0.000567774 0)
(-0.0107343 0.000571512 0)
(-0.0115611 0.000573298 0)
(-0.0123896 0.000573276 0)
(-0.0132172 0.000571588 0)
(-0.0140416 0.000568371 0)
(-0.0148608 0.000563759 0)
(-0.0156727 0.00055788 0)
(-0.0164758 0.000550859 0)
(-0.0172683 0.000542813 0)
(-0.0180488 0.000533856 0)
(-0.0188162 0.000524094 0)
(-0.0195693 0.000513629 0)
(-0.0203071 0.000502557 0)
(-0.0210288 0.000490967 0)
(-0.0217337 0.000478944 0)
(-0.0224212 0.000466566 0)
(-0.0230907 0.000453907 0)
(-0.023742 0.000441033 0)
(-0.0243748 0.000428007 0)
(-0.0249887 0.000414885 0)
(-0.0255838 0.00040172 0)
(-0.0261599 0.000388559 0)
(-0.0267171 0.000375445 0)
(-0.0272555 0.000362415 0)
(-0.0277751 0.000349502 0)
(-0.0282761 0.000336738 0)
(-0.0287588 0.000324148 0)
(-0.0292234 0.000311753 0)
(-0.0296701 0.000299573 0)
(-0.0300994 0.000287623 0)
(-0.0305114 0.000275916 0)
(-0.0309067 0.00026446 0)
(-0.0312854 0.000253264 0)
(-0.031648 0.00024233 0)
(-0.0319948 0.00023166 0)
(-0.0323263 0.000221255 0)
(-0.0326427 0.00021111 0)
(-0.0329445 0.000201223 0)
(-0.0332319 0.000191586 0)
(-0.0335055 0.000182192 0)
(-0.0337654 0.00017303 0)
(-0.034012 0.000164089 0)
(-0.0342456 0.000155358 0)
(-0.0344665 0.000146822 0)
(-0.034675 0.000138466 0)
(-0.0348713 0.000130275 0)
(-0.0350556 0.00012223 0)
(-0.0352282 0.000114316 0)
(-0.0353891 0.000106511 0)
(-0.0355386 9.87983e-05 0)
(-0.0356767 9.1156e-05 0)
(-0.0358035 8.35637e-05 0)
(-0.0359192 7.60001e-05 0)
(-0.0360236 6.84431e-05 0)
(-0.0361168 6.08703e-05 0)
(-0.0361988 5.32591e-05 0)
(-0.0362695 4.55864e-05 0)
(-0.0363288 3.78289e-05 0)
(-0.0363765 2.99631e-05 0)
(-0.0364125 2.19655e-05 0)
(-0.0364365 1.38126e-05 0)
(-0.0364483 5.48072e-06 0)
(-0.0364477 -3.05339e-06 0)
(-0.0364344 -1.18128e-05 0)
(-0.0364079 -2.08204e-05 0)
(-0.036368 -3.00984e-05 0)
(-0.0363142 -3.96685e-05 0)
(-0.0362462 -4.95518e-05 0)
(-0.0361633 -5.97686e-05 0)
(-0.0360652 -7.0338e-05 0)
(-0.0359514 -8.12782e-05 0)
(-0.0358212 -9.2606e-05 0)
(-0.0356742 -0.000104337 0)
(-0.0355097 -0.000116484 0)
(-0.0353272 -0.00012906 0)
(-0.035126 -0.000142075 0)
(-0.0349056 -0.000155535 0)
(-0.0346652 -0.000169446 0)
(-0.0344043 -0.000183811 0)
(-0.0341222 -0.000198628 0)
(-0.0338183 -0.000213893 0)
(-0.0334919 -0.0002296 0)
(-0.0331425 -0.000245737 0)
(-0.0327695 -0.000262288 0)
(-0.0323723 -0.000279234 0)
(-0.0319504 -0.000296551 0)
(-0.0315033 -0.00031421 0)
(-0.0310305 -0.000332176 0)
(-0.0305317 -0.000350411 0)
(-0.0300065 -0.000368868 0)
(-0.0294547 -0.000387497 0)
(-0.0288761 -0.00040624 0)
(-0.0282707 -0.000425035 0)
(-0.0276383 -0.00044381 0)
(-0.0269792 -0.000462491 0)
(-0.0262936 -0.000480993 0)
(-0.0255818 -0.000499226 0)
(-0.0248443 -0.000517095 0)
(-0.0240818 -0.000534496 0)
(-0.0232949 -0.000551319 0)
(-0.0224847 -0.000567446 0)
(-0.0216523 -0.000582756 0)
(-0.0207989 -0.00059712 0)
(-0.0199261 -0.000610402 0)
(-0.0190355 -0.000622463 0)
(-0.018129 -0.000633158 0)
(-0.0172086 -0.000642336 0)
(-0.0162767 -0.000649844 0)
(-0.0153357 -0.000655526 0)
(-0.0143884 -0.000659222 0)
(-0.0134378 -0.000660772 0)
(-0.012487 -0.000660013 0)
(-0.0115394 -0.000656783 0)
(-0.0105987 -0.000650922 0)
(-0.00966863 -0.000642272 0)
(-0.00875327 -0.000630679 0)
(-0.00785685 -0.000615992 0)
(-0.00698382 -0.000598071 0)
(-0.00613876 -0.000576784 0)
(-0.00532642 -0.00055201 0)
(-0.00455169 -0.000523648 0)
(-0.00381952 -0.000491617 0)
(-0.00313493 -0.000455864 0)
(-0.00250292 -0.000416378 0)
(-0.00192838 -0.000373202 0)
(-0.00141605 -0.000326455 0)
(-0.000970269 -0.000276371 0)
(-0.000594876 -0.00022335 0)
(-0.000292847 -0.000168045 0)
(-6.59016e-05 -0.000111512 0)
(8.61373e-05 -5.54471e-05 0)
(0.00016624 -2.5821e-06 0)
(0.000181294 4.26794e-05 0)
(0.000143966 7.32459e-05 0)
(7.79794e-05 7.79432e-05 0)
(2.08638e-05 4.20309e-05 0)
(1.98102e-05 -7.86227e-05 0)
(6.81253e-05 -0.000132095 0)
(0.000111234 -0.000110679 0)
(0.000110434 -3.9468e-05 0)
(4.04663e-05 6.29567e-05 0)
(-0.000113532 0.000183374 0)
(-0.000360454 0.000312639 0)
(-0.000704701 0.000444542 0)
(-0.00114722 0.000574902 0)
(-0.00168645 0.000700926 0)
(-0.00231905 0.000820765 0)
(-0.00304044 0.000933223 0)
(-0.00384518 0.00103756 0)
(-0.0047273 0.00113336 0)
(-0.00568047 0.00122044 0)
(-0.00669822 0.00129877 0)
(-0.00777402 0.00136847 0)
(-0.0089014 0.00142974 0)
(-0.010074 0.00148282 0)
(-0.0112857 0.00152804 0)
(-0.0125304 0.00156573 0)
(-0.0138025 0.00159627 0)
(-0.0150966 0.00162004 0)
(-0.0164074 0.00163744 0)
(-0.0177301 0.00164886 0)
(-0.0190602 0.00165471 0)
(-0.0203933 0.00165539 0)
(-0.0217256 0.00165128 0)
(-0.0230533 0.00164276 0)
(-0.024373 0.00163022 0)
(-0.0256817 0.00161401 0)
(-0.0269765 0.00159447 0)
(-0.0282549 0.00157195 0)
(-0.0295147 0.00154677 0)
(-0.0307537 0.00151922 0)
(-0.0319701 0.00148961 0)
(-0.0331624 0.00145819 0)
(-0.0343292 0.00142523 0)
(-0.0354693 0.00139098 0)
(-0.0365817 0.00135565 0)
(-0.0376656 0.00131946 0)
(-0.0387204 0.0012826 0)
(-0.0397455 0.00124525 0)
(-0.0407406 0.00120758 0)
(-0.0417054 0.00116974 0)
(-0.0426399 0.00113187 0)
(-0.043544 0.00109409 0)
(-0.0444178 0.00105651 0)
(-0.0452615 0.00101923 0)
(-0.0460753 0.000982335 0)
(-0.0468596 0.000945909 0)
(-0.0476147 0.000910015 0)
(-0.0483409 0.000874708 0)
(-0.0490389 0.000840034 0)
(-0.0497091 0.000806032 0)
(-0.0503521 0.000772729 0)
(-0.0509683 0.000740148 0)
(-0.0515583 0.000708301 0)
(-0.0521228 0.000677195 0)
(-0.0526623 0.000646831 0)
(-0.0531773 0.000617202 0)
(-0.0536685 0.000588296 0)
(-0.0541365 0.000560096 0)
(-0.0545816 0.00053258 0)
(-0.0550046 0.000505721 0)
(-0.0554058 0.000479488 0)
(-0.0557858 0.000453847 0)
(-0.0561451 0.000428757 0)
(-0.0564839 0.000404178 0)
(-0.0568028 0.000380063 0)
(-0.057102 0.000356364 0)
(-0.0573819 0.000333031 0)
(-0.0576428 0.00031001 0)
(-0.0578848 0.000287245 0)
(-0.0581082 0.000264679 0)
(-0.058313 0.000242252 0)
(-0.0584994 0.000219903 0)
(-0.0586674 0.000197569 0)
(-0.0588169 0.000175188 0)
(-0.058948 0.000152693 0)
(-0.0590604 0.000130018 0)
(-0.0591541 0.000107099 0)
(-0.0592287 8.3867e-05 0)
(-0.0592841 6.02557e-05 0)
(-0.0593199 3.61981e-05 0)
(-0.0593356 1.16273e-05 0)
(-0.059331 -1.35231e-05 0)
(-0.0593054 -3.93186e-05 0)
(-0.0592583 -6.58236e-05 0)
(-0.0591892 -9.31011e-05 0)
(-0.0590975 -0.000121212 0)
(-0.0589823 -0.000150217 0)
(-0.058843 -0.000180171 0)
(-0.0586789 -0.000211129 0)
(-0.0584891 -0.000243141 0)
(-0.0582727 -0.000276253 0)
(-0.0580289 -0.000310509 0)
(-0.0577567 -0.000345945 0)
(-0.0574553 -0.000382594 0)
(-0.0571236 -0.000420481 0)
(-0.0567607 -0.000459627 0)
(-0.0563656 -0.000500042 0)
(-0.0559372 -0.000541732 0)
(-0.0554746 -0.000584692 0)
(-0.0549769 -0.000628908 0)
(-0.0544429 -0.000674355 0)
(-0.0538719 -0.000721 0)
(-0.0532628 -0.000768795 0)
(-0.0526149 -0.000817682 0)
(-0.0519273 -0.000867589 0)
(-0.0511992 -0.000918429 0)
(-0.0504301 -0.000970103 0)
(-0.0496193 -0.00102249 0)
(-0.0487663 -0.00107547 0)
(-0.0478708 -0.00112888 0)
(-0.0469325 -0.00118257 0)
(-0.0459514 -0.00123634 0)
(-0.0449275 -0.00129 0)
(-0.043861 -0.00134332 0)
(-0.0427523 -0.00139607 0)
(-0.0416021 -0.00144799 0)
(-0.0404112 -0.0014988 0)
(-0.0391805 -0.00154821 0)
(-0.0379115 -0.0015959 0)
(-0.0366056 -0.00164154 0)
(-0.0352647 -0.00168479 0)
(-0.0338908 -0.00172527 0)
(-0.0324864 -0.00176261 0)
(-0.0310541 -0.00179641 0)
(-0.029597 -0.00182625 0)
(-0.0281183 -0.00185173 0)
(-0.0266219 -0.00187241 0)
(-0.0251116 -0.00188785 0)
(-0.0235917 -0.0018976 0)
(-0.0220671 -0.00190123 0)
(-0.0205428 -0.00189828 0)
(-0.019024 -0.00188831 0)
(-0.0175165 -0.00187088 0)
(-0.0160263 -0.00184558 0)
(-0.0145598 -0.00181197 0)
(-0.0131236 -0.00176969 0)
(-0.0117246 -0.00171836 0)
(-0.0103698 -0.00165766 0)
(-0.00906667 -0.0015873 0)
(-0.00782261 -0.00150707 0)
(-0.00664518 -0.00141682 0)
(-0.00554194 -0.00131651 0)
(-0.00452032 -0.00120623 0)
(-0.00358756 -0.00108624 0)
(-0.00275044 -0.000957078 0)
(-0.00201512 -0.000819593 0)
(-0.00138676 -0.000675142 0)
(-0.000869134 -0.000525783 0)
(-0.000464037 -0.000374606 0)
(-0.00017047 -0.000226224 0)
(1.63986e-05 -8.75102e-05 0)
(0.000106411 3.13543e-05 0)
(0.000116089 0.000115544 0)
(7.35457e-05 0.000144006 0)
(2.18478e-05 8.77521e-05 0)
(1.55825e-05 -0.00011367 0)
(4.29335e-05 -0.000170679 0)
(4.09125e-05 -0.000110087 0)
(-2.80992e-05 2.97156e-05 0)
(-0.000189801 0.000221186 0)
(-0.000460383 0.000443889 0)
(-0.000849917 0.000682954 0)
(-0.00136364 0.000927787 0)
(-0.00200291 0.00117092 0)
(-0.00276615 0.00140712 0)
(-0.00364958 0.00163279 0)
(-0.00464777 0.00184548 0)
(-0.00575419 0.00204359 0)
(-0.00696146 0.00222616 0)
(-0.00826172 0.00239268 0)
(-0.0096468 0.00254295 0)
(-0.0111084 0.00267707 0)
(-0.0126382 0.00279531 0)
(-0.014228 0.00289807 0)
(-0.0158698 0.00298588 0)
(-0.0175558 0.00305935 0)
(-0.0192785 0.00311911 0)
(-0.0210308 0.00316589 0)
(-0.0228058 0.00320039 0)
(-0.0245971 0.00322336 0)
(-0.0263985 0.00323555 0)
(-0.0282045 0.0032377 0)
(-0.0300097 0.00323055 0)
(-0.0318092 0.00321483 0)
(-0.0335984 0.00319124 0)
(-0.0353732 0.00316048 0)
(-0.0371297 0.00312321 0)
(-0.0388646 0.00308008 0)
(-0.0405747 0.0030317 0)
(-0.0422572 0.00297866 0)
(-0.0439096 0.00292152 0)
(-0.0455298 0.00286082 0)
(-0.0471158 0.00279704 0)
(-0.0486661 0.00273066 0)
(-0.0501793 0.00266213 0)
(-0.0516542 0.00259184 0)
(-0.05309 0.00252019 0)
(-0.0544858 0.00244752 0)
(-0.0558412 0.00237416 0)
(-0.0571558 0.0023004 0)
(-0.0584294 0.00222652 0)
(-0.059662 0.00215275 0)
(-0.0608536 0.00207933 0)
(-0.0620044 0.00200644 0)
(-0.0631148 0.00193426 0)
(-0.0641851 0.00186294 0)
(-0.0652159 0.00179262 0)
(-0.0662076 0.00172339 0)
(-0.0671608 0.00165536 0)
(-0.0680762 0.00158861 0)
(-0.0689545 0.00152318 0)
(-0.0697965 0.00145913 0)
(-0.0706027 0.00139648 0)
(-0.0713741 0.00133525 0)
(-0.0721114 0.00127544 0)
(-0.0728153 0.00121704 0)
(-0.0734866 0.00116002 0)
(-0.0741261 0.00110437 0)
(-0.0747343 0.00105003 0)
(-0.0753122 0.00099695 0)
(-0.0758603 0.000945077 0)
(-0.0763792 0.000894342 0)
(-0.0768696 0.000844671 0)
(-0.077332 0.000795981 0)
(-0.077767 0.000748186 0)
(-0.0781749 0.000701193 0)
(-0.0785562 0.000654902 0)
(-0.0789113 0.000609211 0)
(-0.0792404 0.000564012 0)
(-0.0795438 0.000519193 0)
(-0.0798216 0.00047464 0)
(-0.080074 0.000430233 0)
(-0.080301 0.000385851 0)
(-0.0805026 0.000341372 0)
(-0.0806786 0.000296668 0)
(-0.080829 0.000251613 0)
(-0.0809535 0.000206078 0)
(-0.0810518 0.000159933 0)
(-0.0811235 0.00011305 0)
(-0.0811682 6.52986e-05 0)
(-0.0811853 1.65492e-05 0)
(-0.0811743 -3.33258e-05 0)
(-0.0811345 -8.44527e-05 0)
(-0.0810653 -0.000136956 0)
(-0.0809657 -0.000190956 0)
(-0.0808351 -0.000246571 0)
(-0.0806723 -0.000303915 0)
(-0.0804765 -0.000363096 0)
(-0.0802467 -0.000424217 0)
(-0.0799817 -0.000487373 0)
(-0.0796805 -0.000552654 0)
(-0.0793418 -0.00062014 0)
(-0.0789644 -0.000689899 0)
(-0.0785471 -0.000761993 0)
(-0.0780886 -0.00083647 0)
(-0.0775876 -0.000913362 0)
(-0.0770427 -0.000992693 0)
(-0.0764528 -0.00107446 0)
(-0.0758164 -0.00115867 0)
(-0.0751323 -0.00124527 0)
(-0.0743992 -0.00133422 0)
(-0.0736159 -0.00142545 0)
(-0.0727811 -0.00151886 0)
(-0.0718938 -0.00161434 0)
(-0.0709529 -0.00171175 0)
(-0.0699575 -0.0018109 0)
(-0.0689066 -0.00191161 0)
(-0.0677996 -0.00201365 0)
(-0.0666359 -0.00211675 0)
(-0.065415 -0.00222062 0)
(-0.0641366 -0.00232495 0)
(-0.0628007 -0.00242936 0)
(-0.0614074 -0.00253348 0)
(-0.0599571 -0.00263686 0)
(-0.0584502 -0.00273905 0)
(-0.0568878 -0.00283954 0)
(-0.055271 -0.0029378 0)
(-0.0536011 -0.00303326 0)
(-0.0518801 -0.0031253 0)
(-0.05011 -0.00321329 0)
(-0.0482932 -0.00329655 0)
(-0.0464327 -0.00337439 0)
(-0.0445316 -0.00344605 0)
(-0.0425937 -0.00351079 0)
(-0.0406229 -0.00356782 0)
(-0.0386238 -0.00361633 0)
(-0.0366013 -0.00365551 0)
(-0.0345607 -0.00368451 0)
(-0.0325079 -0.00370249 0)
(-0.0304491 -0.00370862 0)
(-0.028391 -0.00370203 0)
(-0.0263407 -0.00368192 0)
(-0.0243059 -0.00364745 0)
(-0.0222944 -0.00359784 0)
(-0.0203146 -0.00353234 0)
(-0.0183753 -0.00345024 0)
(-0.0164853 -0.0033509 0)
(-0.0146541 -0.00323375 0)
(-0.0128912 -0.00309835 0)
(-0.0112061 -0.00294434 0)
(-0.00960854 -0.00277158 0)
(-0.00810822 -0.00258011 0)
(-0.00671449 -0.00237024 0)
(-0.00543637 -0.00214269 0)
(-0.00428222 -0.00189863 0)
(-0.00325949 -0.00163992 0)
(-0.00237428 -0.00136933 0)
(-0.00163087 -0.0010909 0)
(-0.00103106 -0.000810412 0)
(-0.000573377 -0.000536157 0)
(-0.000252033 -0.000279881 0)
(-5.58494e-05 -5.81503e-05 0)
(3.31916e-05 0.000106136 0)
(4.35668e-05 0.000181869 0)
(1.67359e-05 0.000125143 0)
(8.69761e-06 -0.000131051 0)
(4.49816e-06 -0.000164824 0)
(-6.07332e-05 -4.07102e-05 0)
(-0.000218716 0.000191248 0)
(-0.00049295 0.000495203 0)
(-0.00089942 0.000843904 0)
(-0.00144819 0.00121689 0)
(-0.00214452 0.00159909 0)
(-0.00298972 0.0019795 0)
(-0.00398201 0.00235018 0)
(-0.00511716 0.00270543 0)
(-0.0063891 0.00304131 0)
(-0.00779038 0.00335511 0)
(-0.00931257 0.00364512 0)
(-0.0109465 0.00391031 0)
(-0.0126828 0.00415026 0)
(-0.0145115 0.00436494 0)
(-0.0164229 0.00455463 0)
(-0.0184072 0.0047199 0)
(-0.0204549 0.00486147 0)
(-0.0225566 0.00498022 0)
(-0.0247032 0.00507713 0)
(-0.0268861 0.00515326 0)
(-0.029097 0.00520972 0)
(-0.0313281 0.00524766 0)
(-0.033572 0.00526823 0)
(-0.0358216 0.00527262 0)
(-0.0380705 0.00526197 0)
(-0.0403126 0.00523744 0)
(-0.0425423 0.00520016 0)
(-0.0447545 0.00515122 0)
(-0.0469444 0.00509169 0)
(-0.0491079 0.00502259 0)
(-0.0512409 0.00494493 0)
(-0.05334 0.00485963 0)
(-0.0554022 0.00476761 0)
(-0.0574247 0.00466971 0)
(-0.0594051 0.00456676 0)
(-0.0613414 0.00445949 0)
(-0.0632319 0.00434864 0)
(-0.065075 0.00423486 0)
(-0.0668696 0.00411877 0)
(-0.0686148 0.00400094 0)
(-0.07031 0.00388191 0)
(-0.0719545 0.00376216 0)
(-0.0735481 0.00364213 0)
(-0.0750908 0.00352221 0)
(-0.0765825 0.00340277 0)
(-0.0780235 0.00328413 0)
(-0.0794142 0.00316658 0)
(-0.0807549 0.00305035 0)
(-0.0820463 0.00293568 0)
(-0.083289 0.00282274 0)
(-0.0844837 0.0027117 0)
(-0.0856312 0.00260266 0)
(-0.0867323 0.00249574 0)
(-0.0877878 0.00239101 0)
(-0.0887988 0.00228852 0)
(-0.0897661 0.00218828 0)
(-0.0906906 0.00209032 0)
(-0.0915732 0.00199462 0)
(-0.092415 0.00190113 0)
(-0.0932167 0.00180983 0)
(-0.0939793 0.00172063 0)
(-0.0947036 0.00163346 0)
(-0.0953905 0.00154822 0)
(-0.0960407 0.00146481 0)
(-0.0966549 0.00138311 0)
(-0.0972338 0.00130298 0)
(-0.0977781 0.00122429 0)
(-0.0982883 0.00114689 0)
(-0.0987649 0.00107061 0)
(-0.0992084 0.000995298 0)
(-0.099619 0.000920772 0)
(-0.0999972 0.000846855 0)
(-0.100343 0.000773359 0)
(-0.100657 0.000700095 0)
(-0.100938 0.000626866 0)
(-0.101188 0.000553472 0)
(-0.101405 0.000479711 0)
(-0.101589 0.000405378 0)
(-0.101741 0.000330265 0)
(-0.10186 0.000254164 0)
(-0.101945 0.000176865 0)
(-0.101996 9.81602e-05 0)
(-0.102013 1.78416e-05 0)
(-0.101994 -6.42967e-05 0)
(-0.101938 -0.000148458 0)
(-0.101845 -0.00023484 0)
(-0.101715 -0.000323639 0)
(-0.101545 -0.000415043 0)
(-0.101334 -0.000509233 0)
(-0.101082 -0.000606383 0)
(-0.100788 -0.000706656 0)
(-0.100449 -0.000810204 0)
(-0.100065 -0.00091717 0)
(-0.0996338 -0.00102768 0)
(-0.0991543 -0.00114184 0)
(-0.0986248 -0.00125974 0)
(-0.0980439 -0.00138147 0)
(-0.0974098 -0.00150706 0)
(-0.0967211 -0.00163656 0)
(-0.0959761 -0.00176996 0)
(-0.0951732 -0.00190724 0)
(-0.0943109 -0.00204834 0)
(-0.0933877 -0.00219319 0)
(-0.092402 -0.00234166 0)
(-0.0913524 -0.00249359 0)
(-0.0902375 -0.00264878 0)
(-0.0890562 -0.00280701 0)
(-0.0878073 -0.002968 0)
(-0.0864898 -0.0031314 0)
(-0.0851027 -0.00329686 0)
(-0.0836454 -0.00346395 0)
(-0.0821175 -0.0036322 0)
(-0.0805186 -0.00380107 0)
(-0.0788487 -0.00396998 0)
(-0.0771079 -0.0041383 0)
(-0.0752968 -0.00430534 0)
(-0.0734162 -0.00447033 0)
(-0.0714671 -0.00463247 0)
(-0.0694511 -0.0047909 0)
(-0.0673699 -0.00494469 0)
(-0.0652258 -0.00509287 0)
(-0.0630215 -0.0052344 0)
(-0.0607601 -0.00536819 0)
(-0.058445 -0.00549313 0)
(-0.0560804 -0.00560802 0)
(-0.0536706 -0.00571166 0)
(-0.0512208 -0.00580279 0)
(-0.0487365 -0.00588012 0)
(-0.0462237 -0.00594235 0)
(-0.043689 -0.00598815 0)
(-0.0411395 -0.00601618 0)
(-0.0385829 -0.0060251 0)
(-0.0360275 -0.0060136 0)
(-0.0334817 -0.00598036 0)
(-0.030955 -0.00592412 0)
(-0.0284569 -0.00584366 0)
(-0.0259975 -0.00573782 0)
(-0.0235874 -0.00560554 0)
(-0.0212375 -0.00544586 0)
(-0.0189588 -0.00525798 0)
(-0.0167627 -0.00504126 0)
(-0.0146608 -0.00479529 0)
(-0.0126644 -0.00451995 0)
(-0.0107849 -0.00421548 0)
(-0.00903337 -0.00388258 0)
(-0.00742011 -0.00352256 0)
(-0.0059548 -0.00313751 0)
(-0.00464587 -0.00273056 0)
(-0.0035002 -0.00230622 0)
(-0.00252254 -0.00187085 0)
(-0.00171491 -0.00143331 0)
(-0.00107586 -0.0010058 0)
(-0.00059956 -0.000605058 0)
(-0.000274825 -0.000253869 0)
(-8.38789e-05 1.72999e-05 0)
(-8.48954e-07 0.000168129 0)
(8.73951e-06 0.000141883 0)
(6.68615e-07 -0.000125854 0)
(-4.10583e-05 -0.000102901 0)
(-0.000181029 0.000112726 0)
(-0.000441993 0.000461979 0)
(-0.000843355 0.000901894 0)
(-0.00139969 0.00139914 0)
(-0.00212009 0.00192811 0)
(-0.00300908 0.00246941 0)
(-0.00406747 0.00300853 0)
(-0.00529296 0.0035347 0)
(-0.00668077 0.00404003 0)
(-0.00822417 0.00451885 0)
(-0.00991491 0.00496722 0)
(-0.0117436 0.00538249 0)
(-0.0137002 0.00576304 0)
(-0.015774 0.00610807 0)
(-0.0179539 0.00641736 0)
(-0.020229 0.00669119 0)
(-0.0225881 0.00693021 0)
(-0.0250203 0.00713534 0)
(-0.0275149 0.00730776 0)
(-0.0300616 0.00744878 0)
(-0.0326504 0.00755986 0)
(-0.0352717 0.00764254 0)
(-0.0379165 0.00769841 0)
(-0.0405762 0.00772912 0)
(-0.0432425 0.00773631 0)
(-0.0459081 0.00772164 0)
(-0.0485657 0.00768675 0)
(-0.0512089 0.00763324 0)
(-0.0538316 0.0075627 0)
(-0.0564282 0.00747665 0)
(-0.0589938 0.00737659 0)
(-0.0615237 0.00726394 0)
(-0.064014 0.00714006 0)
(-0.0664608 0.00700627 0)
(-0.068861 0.0068638 0)
(-0.0712117 0.00671383 0)
(-0.0735106 0.00655747 0)
(-0.0757554 0.00639576 0)
(-0.0779445 0.00622967 0)
(-0.0800765 0.0060601 0)
(-0.0821502 0.00588789 0)
(-0.0841647 0.00571382 0)
(-0.0861195 0.00553859 0)
(-0.0880142 0.00536285 0)
(-0.0898486 0.00518719 0)
(-0.0916228 0.00501214 0)
(-0.093337 0.00483817 0)
(-0.0949916 0.00466571 0)
(-0.096587 0.00449512 0)
(-0.0981239 0.00432672 0)
(-0.099603 0.00416078 0)
(-0.101025 0.00399755 0)
(-0.102391 0.00383719 0)
(-0.103702 0.00367987 0)
(-0.104959 0.0035257 0)
(-0.106163 0.00337474 0)
(-0.107315 0.00322705 0)
(-0.108416 0.00308263 0)
(-0.109467 0.00294146 0)
(-0.110469 0.00280352 0)
(-0.111424 0.00266871 0)
(-0.112331 0.00253696 0)
(-0.113193 0.00240814 0)
(-0.114011 0.00228212 0)
(-0.114784 0.00215875 0)
(-0.115515 0.00203784 0)
(-0.116203 0.00191923 0)
(-0.11685 0.00180269 0)
(-0.117456 0.00168802 0)
(-0.118021 0.00157498 0)
(-0.118547 0.00146333 0)
(-0.119034 0.00135282 0)
(-0.119482 0.00124319 0)
(-0.11989 0.00113416 0)
(-0.120261 0.00102547 0)
(-0.120592 0.000916816 0)
(-0.120885 0.000807919 0)
(-0.12114 0.000698483 0)
(-0.121355 0.000588207 0)
(-0.121531 0.000476791 0)
(-0.121668 0.000363933 0)
(-0.121764 0.000249328 0)
(-0.121819 0.000132673 0)
(-0.121833 1.36686e-05 0)
(-0.121804 -0.000107985 0)
(-0.121732 -0.000232582 0)
(-0.121615 -0.00036041 0)
(-0.121452 -0.00049175 0)
(-0.121243 -0.000626875 0)
(-0.120986 -0.000766046 0)
(-0.120679 -0.000909514 0)
(-0.120321 -0.00105751 0)
(-0.11991 -0.00121026 0)
(-0.119446 -0.00136796 0)
(-0.118925 -0.00153079 0)
(-0.118347 -0.00169891 0)
(-0.11771 -0.00187245 0)
(-0.117011 -0.0020515 0)
(-0.11625 -0.00223615 0)
(-0.115424 -0.00242643 0)
(-0.114531 -0.00262233 0)
(-0.113569 -0.00282383 0)
(-0.112538 -0.00303082 0)
(-0.111434 -0.0032432 0)
(-0.110256 -0.00346076 0)
(-0.109003 -0.00368329 0)
(-0.107673 -0.00391048 0)
(-0.106265 -0.004142 0)
(-0.104776 -0.00437741 0)
(-0.103207 -0.00461626 0)
(-0.101556 -0.00485798 0)
(-0.099823 -0.00510196 0)
(-0.0980065 -0.0053475 0)
(-0.0961065 -0.00559383 0)
(-0.0941231 -0.0058401 0)
(-0.0920565 -0.00608537 0)
(-0.0899074 -0.00632864 0)
(-0.0876767 -0.00656881 0)
(-0.0853659 -0.0068047 0)
(-0.0829766 -0.00703506 0)
(-0.080511 -0.00725854 0)
(-0.0779718 -0.00747372 0)
(-0.0753622 -0.00767911 0)
(-0.0726857 -0.00787315 0)
(-0.0699466 -0.00805419 0)
(-0.0671496 -0.00822054 0)
(-0.0642999 -0.00837043 0)
(-0.0614035 -0.00850206 0)
(-0.0584668 -0.00861359 0)
(-0.0554969 -0.00870314 0)
(-0.0525015 -0.00876879 0)
(-0.0494889 -0.00880865 0)
(-0.046468 -0.0088208 0)
(-0.0434482 -0.00880337 0)
(-0.0404397 -0.00875451 0)
(-0.0374531 -0.00867244 0)
(-0.0344996 -0.00855545 0)
(-0.0315908 -0.00840194 0)
(-0.0287387 -0.00821045 0)
(-0.0259559 -0.00797972 0)
(-0.0232551 -0.00770867 0)
(-0.0206492 -0.00739652 0)
(-0.0181512 -0.00704283 0)
(-0.0157742 -0.00664759 0)
(-0.0135307 -0.00621133 0)
(-0.0114333 -0.00573526 0)
(-0.00949339 -0.00522143 0)
(-0.00772175 -0.00467303 0)
(-0.00612771 -0.00409467 0)
(-0.00471888 -0.0034928 0)
(-0.00350062 -0.00287628 0)
(-0.0024755 -0.00225714 0)
(-0.00164262 -0.00165151 0)
(-0.000996942 -0.00108091 0)
(-0.000528355 -0.000573809 0)
(-0.000220679 -0.000167382 0)
(-5.27527e-05 9.02792e-05 0)
(-4.34133e-07 0.000132724 0)
(-7.72343e-06 -9.57908e-05 0)
(-8.99881e-05 2.18321e-05 0)
(-0.000311405 0.000359954 0)
(-0.000684131 0.000853186 0)
(-0.00122223 0.0014529 0)
(-0.00193797 0.00212065 0)
(-0.00283868 0.00282626 0)
(-0.00392754 0.00354643 0)
(-0.00520436 0.00426331 0)
(-0.00666601 0.00496339 0)
(-0.00830697 0.00563653 0)
(-0.0101198 0.00627531 0)
(-0.0120953 0.00687443 0)
(-0.0142235 0.00743023 0)
(-0.0164932 0.00794042 0)
(-0.0188927 0.00840371 0)
(-0.0214101 0.00881966 0)
(-0.0240331 0.00918847 0)
(-0.0267496 0.00951087 0)
(-0.0295474 0.00978797 0)
(-0.0324148 0.0100212 0)
(-0.0353402 0.0102123 0)
(-0.0383125 0.010363 0)
(-0.0413211 0.0104755 0)
(-0.0443557 0.0105517 0)
(-0.0474067 0.0105939 0)
(-0.0504651 0.0106041 0)
(-0.0535222 0.0105847 0)
(-0.0565701 0.0105378 0)
(-0.0596014 0.0104656 0)
(-0.0626093 0.0103701 0)
(-0.0655875 0.0102535 0)
(-0.0685302 0.0101177 0)
(-0.0714324 0.0099647 0)
(-0.0742892 0.00979629 0)
(-0.0770966 0.00961425 0)
(-0.0798508 0.00942028 0)
(-0.0825486 0.00921597 0)
(-0.0851873 0.00900282 0)
(-0.0877643 0.00878226 0)
(-0.0902777 0.0085556 0)
(-0.0927259 0.00832408 0)
(-0.0951074 0.00808884 0)
(-0.0974214 0.00785093 0)
(-0.0996671 0.00761134 0)
(-0.101844 0.00737095 0)
(-0.103952 0.00713055 0)
(-0.105991 0.00689089 0)
(-0.107961 0.00665261 0)
(-0.109863 0.00641628 0)
(-0.111698 0.00618242 0)
(-0.113465 0.00595147 0)
(-0.115166 0.0057238 0)
(-0.116801 0.00549974 0)
(-0.118372 0.00527955 0)
(-0.11988 0.00506343 0)
(-0.121326 0.00485154 0)
(-0.122711 0.00464398 0)
(-0.124035 0.00444083 0)
(-0.125302 0.0042421 0)
(-0.12651 0.00404776 0)
(-0.127663 0.00385777 0)
(-0.128761 0.00367203 0)
(-0.129804 0.00349042 0)
(-0.130795 0.00331278 0)
(-0.131735 0.00313893 0)
(-0.132624 0.00296866 0)
(-0.133463 0.00280174 0)
(-0.134253 0.00263791 0)
(-0.134995 0.0024769 0)
(-0.13569 0.00231842 0)
(-0.136339 0.00216214 0)
(-0.136941 0.00200775 0)
(-0.137498 0.0018549 0)
(-0.13801 0.00170324 0)
(-0.138477 0.00155239 0)
(-0.138899 0.00140198 0)
(-0.139276 0.00125163 0)
(-0.139609 0.00110094 0)
(-0.139897 0.000949504 0)
(-0.14014 0.000796926 0)
(-0.140337 0.000642792 0)
(-0.140489 0.000486693 0)
(-0.140593 0.000328216 0)
(-0.140651 0.000166952 0)
(-0.14066 2.49045e-06 0)
(-0.14062 -0.000165571 0)
(-0.14053 -0.000337631 0)
(-0.140389 -0.000514079 0)
(-0.140195 -0.000695296 0)
(-0.139947 -0.000881648 0)
(-0.139643 -0.00107349 0)
(-0.139282 -0.00127116 0)
(-0.138863 -0.00147496 0)
(-0.138383 -0.00168521 0)
(-0.137841 -0.00190216 0)
(-0.137235 -0.00212605 0)
(-0.136563 -0.00235709 0)
(-0.135823 -0.00259546 0)
(-0.135012 -0.00284129 0)
(-0.13413 -0.00309466 0)
(-0.133173 -0.00335563 0)
(-0.132139 -0.00362419 0)
(-0.131028 -0.00390028 0)
(-0.129836 -0.00418377 0)
(-0.128561 -0.00447449 0)
(-0.127203 -0.00477217 0)
(-0.125758 -0.0050765 0)
(-0.124225 -0.00538708 0)
(-0.122603 -0.00570342 0)
(-0.12089 -0.00602495 0)
(-0.119085 -0.00635102 0)
(-0.117187 -0.00668087 0)
(-0.115195 -0.00701366 0)
(-0.113108 -0.00734844 0)
(-0.110926 -0.00768415 0)
(-0.10865 -0.00801963 0)
(-0.106279 -0.00835362 0)
(-0.103814 -0.00868473 0)
(-0.101257 -0.00901149 0)
(-0.0986081 -0.00933228 0)
(-0.0958706 -0.00964541 0)
(-0.0930466 -0.00994905 0)
(-0.0901392 -0.0102413 0)
(-0.0871518 -0.0105201 0)
(-0.0840886 -0.0107833 0)
(-0.0809544 -0.0110288 0)
(-0.0777546 -0.0112543 0)
(-0.0744951 -0.0114573 0)
(-0.0711825 -0.0116354 0)