/*--------------------------------*- C++ -*----------------------------------*\
  =========                 |
  \\      /  F ield         | OpenFOAM: The Open Source CFD Toolbox
   \\    /   O peration     | Website:  https://openfoam.org
    \\  /    A nd           | Version:  7
     \\/     M anipulation  |
\*---------------------------------------------------------------------------*/
FoamFile
{
    version     2.0;
    format      ascii;
    class       volScalarField;
    location    "0.2625";
    object      p;
}
// * * * * * * * * * * * * * * * * * * * * * * * * * * * * * * * * * * * * * //

dimensions      [0 2 -2 0 0 0 0];

internalField   nonuniform List<scalar> 
12800
(
1.59119e-06
0.000184769
-0.000900055
-0.00334406
-0.00690185
-0.0113266
-0.0163849
-0.0218635
-0.0275756
-0.0333612
-0.039084
-0.0446286
-0.0498977
-0.0548098
-0.0592969
-0.0633031
-0.0667826
-0.0696986
-0.0720224
-0.0737321
-0.0748119
-0.0752515
-0.075045
-0.0741908
-0.0726908
-0.07055
-0.067776
-0.0643788
-0.0603703
-0.0557641
-0.0505751
-0.0448192
-0.0385135
-0.0316756
-0.0243236
-0.016476
-0.0081515
0.000631168
0.00985327
0.0194962
0.0295416
0.0399715
0.0507681
0.0619141
0.0733929
0.085188
0.0972839
0.109665
0.122317
0.135227
0.148379
0.161763
0.175366
0.189175
0.203181
0.217373
0.231742
0.246278
0.260972
0.275818
0.290806
0.305931
0.321185
0.336564
0.35206
0.36767
0.383388
0.39921
0.415132
0.43115
0.447261
0.463461
0.479748
0.496119
0.512571
0.529102
0.54571
0.562392
0.579147
0.595971
0.612864
0.629822
0.646844
0.663926
0.681068
0.698265
0.715515
0.732814
0.75016
0.767548
0.784974
0.802434
0.819921
0.837432
0.854959
0.872496
0.890035
0.907569
0.925088
0.942584
0.960046
0.977463
0.994822
1.01211
1.02932
1.04643
1.06342
1.08029
1.09701
1.11356
1.12993
1.14609
1.16202
1.1777
1.19311
1.20822
1.22301
1.23745
1.25151
1.26517
1.2784
1.29117
1.30346
1.31523
1.32645
1.3371
1.34715
1.35657
1.36534
1.37343
1.38081
1.38746
1.39337
1.3985
1.40286
1.40642
1.40917
1.41111
1.41224
1.41255
1.41207
1.4108
1.40876
1.40598
1.40251
1.39838
1.39364
1.38838
1.38267
1.3766
1.37029
1.36387
1.3575
1.35137
1.34567
1.34067
1.33662
1.33381
1.33253
1.3327
-0.000179231
3.93983e-06
-0.000998913
-0.00313104
-0.00616866
-0.0099364
-0.0142604
-0.0189701
-0.0239088
-0.0289374
-0.0339337
-0.0387918
-0.0434203
-0.0477415
-0.0516892
-0.0552083
-0.0582529
-0.0607853
-0.0627754
-0.0641998
-0.0650407
-0.0652856
-0.0649263
-0.063959
-0.0623831
-0.0602011
-0.0574184
-0.0540425
-0.0500829
-0.0455509
-0.0404592
-0.0348218
-0.0286533
-0.0219696
-0.0147868
-0.00712163
0.00100896
0.0095878
0.0185977
0.0280214
0.037842
0.0480426
0.0586067
0.0695179
0.0807606
0.0923192
0.104179
0.116325
0.128744
0.141422
0.154347
0.167505
0.180886
0.194478
0.20827
0.222253
0.236416
0.250751
0.26525
0.279903
0.294705
0.309647
0.324724
0.339928
0.355255
0.370698
0.386254
0.401917
0.417683
0.433548
0.449509
0.465561
0.481702
0.497928
0.514237
0.530625
0.547091
0.563631
0.580243
0.596924
0.613673
0.630485
0.647359
0.664292
0.68128
0.698321
0.715412
0.732548
0.749725
0.76694
0.784188
0.801464
0.818762
0.836077
0.853401
0.870729
0.888052
0.905362
0.92265
0.939907
0.957123
0.974285
0.991383
1.0084
1.02533
1.04216
1.05886
1.07543
1.09184
1.10808
1.12413
1.13996
1.15557
1.17092
1.186
1.20077
1.21523
1.22933
1.24306
1.2564
1.2693
1.28176
1.29374
1.30521
1.31616
1.32654
1.33634
1.34554
1.3541
1.362
1.36923
1.37576
1.38157
1.38665
1.39099
1.39457
1.39739
1.39945
1.40073
1.40127
1.40105
1.4001
1.39844
1.39611
1.39313
1.38955
1.38544
1.38086
1.37588
1.3706
1.36512
1.35957
1.35409
1.34884
1.34399
1.33975
1.33631
1.33387
1.3327
1.33286
0.000905026
0.00100788
4.19228e-06
-0.00197993
-0.00472935
-0.00810195
-0.0119575
-0.0161543
-0.0205589
-0.0250499
-0.0295183
-0.0338679
-0.0380141
-0.041884
-0.0454146
-0.0485525
-0.051253
-0.0534787
-0.0551993
-0.0563905
-0.0570337
-0.0571151
-0.0566252
-0.0555584
-0.0539127
-0.0516888
-0.0488903
-0.045523
-0.0415946
-0.0371148
-0.0320944
-0.0265458
-0.020482
-0.0139173
-0.00686632
0.00065567
0.00863307
0.01705
0.0258906
0.0351387
0.0447784
0.0547939
0.0651696
0.0758902
0.0869405
0.0983059
0.109972
0.121925
0.134152
0.14664
0.159375
0.172347
0.185544
0.198954
0.212568
0.226376
0.240368
0.254534
0.268868
0.28336
0.298004
0.312792
0.327717
0.342774
0.357956
0.373258
0.388675
0.404202
0.419834
0.435568
0.451399
0.467324
0.483338
0.49944
0.515624
0.53189
0.548232
0.56465
0.581138
0.597696
0.614319
0.631006
0.647752
0.664555
0.681412
0.698318
0.715271
0.732266
0.7493
0.766366
0.783462
0.800581
0.817718
0.834866
0.852019
0.86917
0.88631
0.903432
0.920526
0.937583
0.954592
0.971542
0.988421
1.00522
1.02192
1.0385
1.05497
1.07129
1.08745
1.10343
1.11922
1.13479
1.15013
1.16521
1.18002
1.19453
1.20871
1.22255
1.23601
1.24909
1.26174
1.27394
1.28568
1.29692
1.30764
1.31782
1.32743
1.33645
1.34485
1.35262
1.35973
1.36617
1.37192
1.37696
1.3813
1.3849
1.38779
1.38994
1.39137
1.39208
1.39208
1.39139
1.39004
1.38805
1.38546
1.38232
1.37869
1.37462
1.37019
1.3655
1.36062
1.35569
1.35082
1.34616
1.34185
1.33806
1.33495
1.33269
1.33152
1.33158
0.0033506
0.00314335
0.00198679
-2.60725e-06
-0.00264552
-0.00581835
-0.00940124
-0.0132735
-0.0173205
-0.0214359
-0.0255232
-0.0294955
-0.0332759
-0.0367968
-0.0399993
-0.042833
-0.0452549
-0.047229
-0.0487255
-0.0497204
-0.0501947
-0.0501341
-0.0495284
-0.0483711
-0.0466591
-0.0443919
-0.0415719
-0.0382036
-0.0342934
-0.0298496
-0.0248818
-0.0194008
-0.0134187
-0.00694822
-2.86796e-06
0.00740329
0.0152558
0.0235399
0.0322406
0.0413429
0.0508318
0.0606923
0.0709096
0.0814692
0.0923566
0.103558
0.115059
0.126847
0.13891
0.151233
0.163806
0.176616
0.189654
0.202907
0.216365
0.23002
0.243861
0.25788
0.272069
0.286419
0.300923
0.315574
0.330365
0.345291
0.360344
0.375519
0.390812
0.406217
0.421729
0.437345
0.453059
0.468868
0.484769
0.500757
0.51683
0.532983
0.549214
0.565519
0.581896
0.598341
0.614851
0.631423
0.648053
0.664739
0.681476
0.698261
0.715089
0.731958
0.748861
0.765795
0.782754
0.799733
0.816726
0.833726
0.850727
0.867721
0.8847
0.901656
0.918579
0.93546
0.952289
0.969054
0.985744
1.00235
1.01885
1.03523
1.05148
1.06759
1.08354
1.0993
1.11487
1.13022
1.14533
1.16019
1.17477
1.18905
1.20301
1.21662
1.22987
1.24272
1.25516
1.26717
1.27871
1.28976
1.3003
1.31031
1.31977
1.32865
1.33692
1.34459
1.35161
1.35798
1.36369
1.36872
1.37305
1.3767
1.37964
1.38188
1.38343
1.38429
1.38448
1.38401
1.3829
1.3812
1.37892
1.37613
1.37287
1.3692
1.36519
1.36092
1.35648
1.35197
1.34752
1.34322
1.33923
1.33567
1.33269
1.33043
1.32908
1.32878
0.00692056
0.00619297
0.00473972
0.00262829
-2.52863e-05
-0.00311498
-0.00653777
-0.010192
-0.0139798
-0.0178094
-0.0215961
-0.0252626
-0.0287397
-0.0319658
-0.0348867
-0.0374556
-0.0396319
-0.0413815
-0.0426758
-0.0434914
-0.0438097
-0.0436162
-0.0429004
-0.0416554
-0.0398771
-0.0375645
-0.0347187
-0.0313434
-0.0274439
-0.0230273
-0.0181022
-0.0126781
-0.00676612
-0.000377771
0.0064745
0.0137777
0.0215184
0.0296828
0.0382569
0.0472266
0.0565778
0.0662962
0.0763679
0.0867789
0.0975155
0.108564
0.119912
0.131547
0.143455
0.155625
0.168044
0.180703
0.19359
0.206694
0.220005
0.233514
0.247213
0.261091
0.275141
0.289355
0.303725
0.318244
0.332906
0.347705
0.362633
0.377686
0.392858
0.408145
0.42354
0.43904
0.454641
0.470337
0.486126
0.502004
0.517966
0.534009
0.550131
0.566326
0.582593
0.598927
0.615326
0.631785
0.648302
0.664872
0.681492
0.698158
0.714865
0.73161
0.748387
0.765192
0.782018
0.798861
0.815715
0.832572
0.849426
0.866269
0.883093
0.89989
0.916651
0.933365
0.950023
0.966612
0.983122
0.99954
1.01585
1.03205
1.0481
1.06401
1.07976
1.09532
1.11068
1.12583
1.14073
1.15538
1.16975
1.18382
1.19758
1.21099
1.22403
1.23669
1.24895
1.26076
1.27213
1.28301
1.2934
1.30326
1.31258
1.32134
1.32951
1.33708
1.34404
1.35036
1.35603
1.36105
1.3654
1.36907
1.37208
1.37441
1.37607
1.37707
1.37743
1.37715
1.37627
1.37482
1.37282
1.37032
1.36738
1.36404
1.36037
1.35645
1.35235
1.34817
1.34401
1.33997
1.33616
1.33271
1.32972
1.32732
1.32563
1.32473
0.0113789
0.00998934
0.00812732
0.00579515
0.00303132
-7.48099e-05
-0.0034347
-0.00696393
-0.0105803
-0.0142052
-0.0177652
-0.0211924
-0.0244254
-0.0274088
-0.0300936
-0.0324366
-0.0344005
-0.0359533
-0.0370681
-0.0377226
-0.0378989
-0.0375829
-0.0367642
-0.0354354
-0.0335922
-0.0312331
-0.0283585
-0.0249712
-0.0210759
-0.0166786
-0.0117869
-0.00640975
-0.00055686
0.00576101
0.0125324
0.0197453
0.0273871
0.035445
0.0439058
0.0527563
0.061983
0.0715726
0.0815116
0.0917869
0.102385
0.113294
0.124501
0.135993
0.147758
0.159785
0.172062
0.184579
0.197325
0.210289
0.223462
0.236835
0.250398
0.264143
0.278062
0.292146
0.306389
0.320783
0.335322
0.349999
0.364808
0.379743
0.394799
0.409971
0.425253
0.440642
0.456132
0.471719
0.4874
0.50317
0.519025
0.534961
0.550976
0.567064
0.583224
0.599451
0.615741
0.63209
0.648496
0.664955
0.681461
0.698011
0.714601
0.731225
0.74788
0.76456
0.781259
0.797971
0.814691
0.831411
0.848125
0.864824
0.881502
0.898148
0.914754
0.93131
0.947806
0.96423
0.980572
0.996818
1.01295
1.02897
1.04485
1.06058
1.07613
1.09151
1.10668
1.12164
1.13635
1.15081
1.16499
1.17888
1.19244
1.20567
1.21854
1.23102
1.24311
1.25476
1.26597
1.27671
1.28696
1.29669
1.3059
1.31455
1.32263
1.33013
1.33703
1.34331
1.34896
1.35397
1.35834
1.36206
1.36513
1.36754
1.36931
1.37044
1.37095
1.37085
1.37016
1.36892
1.36716
1.36492
1.36223
1.35917
1.35577
1.35212
1.34828
1.34434
1.34037
1.33647
1.33274
1.32927
1.32616
1.32351
1.32137
1.31971
0.0165045
0.0143677
0.0120164
0.00938407
0.00642679
0.00321912
-0.000162643
-0.00364953
-0.00717339
-0.0106678
-0.0140697
-0.0173204
-0.0203659
-0.0231571
-0.0256501
-0.027806
-0.0295908
-0.030975
-0.0319338
-0.0324464
-0.0324958
-0.0320688
-0.0311551
-0.0297476
-0.027842
-0.0254362
-0.0225306
-0.0191272
-0.0152301
-0.0108447
-0.00597793
-0.000637767
0.00516673
0.0114256
0.0181284
0.0252636
0.0328197
0.0407845
0.0491457
0.0578906
0.0670067
0.0764811
0.0863012
0.0964544
0.106928
0.11771
0.128788
0.14015
0.151785
0.163681
0.175827
0.188213
0.200829
0.213663
0.226708
0.239953
0.25339
0.267011
0.280806
0.294769
0.308892
0.323168
0.33759
0.352152
0.366847
0.381671
0.396616
0.411679
0.426854
0.442136
0.45752
0.473002
0.488579
0.504245
0.519996
0.53583
0.551741
0.567727
0.583783
0.599905
0.616091
0.632335
0.648634
0.664984
0.681381
0.69782
0.714297
0.730806
0.747344
0.763904
0.780481
0.797069
0.813662
0.830252
0.846833
0.863397
0.879935
0.89644
0.912901
0.929309
0.945655
0.961925
0.97811
0.994197
1.01017
1.02602
1.04174
1.0573
1.07269
1.08789
1.10289
1.11767
1.13222
1.14651
1.16052
1.17424
1.18764
1.2007
1.21341
1.22575
1.23768
1.24919
1.26027
1.27088
1.28101
1.29064
1.29975
1.30832
1.31633
1.32377
1.33062
1.33688
1.34252
1.34754
1.35193
1.35569
1.35881
1.36131
1.36317
1.36442
1.36506
1.36511
1.3646
1.36355
1.36198
1.35994
1.35747
1.35462
1.35143
1.34798
1.34432
1.34052
1.33666
1.33281
1.32905
1.32547
1.32215
1.31917
1.31647
1.31398
0.022096
0.0191663
0.0162723
0.0132802
0.0100644
0.00668698
0.00321397
-0.000299385
-0.00379753
-0.00722503
-0.0105286
-0.0136578
-0.0165661
-0.0192104
-0.0215519
-0.0235562
-0.0251925
-0.0264345
-0.0272594
-0.0276483
-0.0275854
-0.0270584
-0.0260579
-0.0245771
-0.0226117
-0.0201598
-0.0172215
-0.0137985
-0.00989449
-0.00551446
-0.000664695
0.00464739
0.0104134
0.0166241
0.0232694
0.030339
0.0378217
0.0457061
0.0539805
0.062633
0.0716516
0.081024
0.0907383
0.100782
0.111144
0.121811
0.132773
0.144018
0.155534
0.16731
0.179337
0.191603
0.204098
0.216814
0.22974
0.242867
0.256187
0.269691
0.283372
0.297221
0.311232
0.325397
0.339709
0.354162
0.36875
0.383468
0.398308
0.413267
0.428339
0.443519
0.458802
0.474184
0.489661
0.505227
0.52088
0.536614
0.552426
0.568313
0.584269
0.600291
0.616376
0.632518
0.648715
0.664961
0.681252
0.697585
0.713953
0.730353
0.746779
0.763225
0.779686
0.796156
0.812628
0.829095
0.845551
0.861987
0.878395
0.894766
0.911092
0.927363
0.943568
0.959696
0.975736
0.991677
1.0075
1.0232
1.03877
1.05417
1.06941
1.08446
1.09931
1.11394
1.12833
1.14246
1.15633
1.16989
1.18315
1.19608
1.20865
1.22085
1.23265
1.24405
1.25501
1.26551
1.27555
1.28509
1.29412
1.30262
1.31058
1.31797
1.3248
1.33103
1.33667
1.3417
1.34612
1.34993
1.35311
1.35568
1.35764
1.35899
1.35975
1.35994
1.35957
1.35866
1.35726
1.35539
1.35308
1.35039
1.34736
1.34403
1.34048
1.33676
1.33293
1.32905
1.3252
1.32143
1.31782
1.31444
1.31114
1.30775
0.0279784
0.024237
0.0207678
0.0173738
0.0138505
0.0102499
0.00663001
0.00303384
-0.000494239
-0.00390864
-0.00716487
-0.0102205
-0.0130355
-0.015573
-0.0177992
-0.0196837
-0.0211997
-0.0223236
-0.0230351
-0.0233171
-0.0231557
-0.0225395
-0.02146
-0.019911
-0.0178888
-0.0153915
-0.0124191
-0.0089736
-0.00505816
-0.000677512
0.00416243
0.00945469
0.0151914
0.0213638
0.0279625
0.0349775
0.0423985
0.0502145
0.0584144
0.066987
0.0759206
0.0852036
0.0948246
0.104772
0.115034
0.125599
0.136457
0.147595
0.159004
0.170672
0.18259
0.194747
0.207133
0.219739
0.232556
0.245574
0.258786
0.272183
0.285757
0.2995
0.313406
0.327467
0.341676
0.356027
0.370514
0.385132
0.399873
0.414734
0.429708
0.444791
0.459978
0.475264
0.490645
0.506116
0.521674
0.537313
0.553031
0.568821
0.584682
0.600608
0.616596
0.632641
0.648738
0.664885
0.681076
0.697306
0.713571
0.729866
0.746185
0.762523
0.778874
0.795231
0.811589
0.827941
0.844278
0.860594
0.87688
0.893127
0.909327
0.92547
0.941545
0.957541
0.973448
0.989254
1.00495
1.02051
1.03593
1.0512
1.0663
1.08121
1.09592
1.11041
1.12467
1.13867
1.1524
1.16584
1.17897
1.19177
1.20423
1.21631
1.22801
1.23931
1.25017
1.26059
1.27054
1.28001
1.28898
1.29744
1.30535
1.31272
1.31953
1.32576
1.3314
1.33645
1.3409
1.34475
1.348
1.35063
1.35267
1.35412
1.35499
1.35529
1.35504
1.35427
1.35299
1.35125
1.34907
1.34649
1.34356
1.34031
1.33681
1.3331
1.32924
1.32527
1.32125
1.31724
1.31329
1.30946
1.30553
1.30124
0.0340003
0.0294471
0.0253864
0.0215622
0.0176958
0.0138313
0.0100204
0.00629577
0.00269178
-0.000754692
-0.00400713
-0.00703024
-0.00979046
-0.0122564
-0.0143992
-0.0161928
-0.0176136
-0.0186413
-0.0192581
-0.019449
-0.0192017
-0.0185062
-0.0173552
-0.0157431
-0.0136669
-0.0111249
-0.00811758
-0.00464674
-0.000715661
0.00367113
0.00850796
0.0137882
0.0195042
0.0256478
0.03221
0.0391812
0.0465516
0.0543107
0.062448
0.0709525
0.0798132
0.0890191
0.098559
0.108422
0.118596
0.129071
0.139836
0.150881
0.162193
0.173765
0.185584
0.197642
0.209929
0.222435
0.235152
0.248071
0.261184
0.274482
0.287957
0.301602
0.315411
0.329375
0.343488
0.357744
0.372136
0.38666
0.401308
0.416076
0.430958
0.445949
0.461044
0.476239
0.49153
0.50691
0.522377
0.537926
0.553552
0.569252
0.585021
0.600855
0.61675
0.632701
0.648705
0.664756
0.680851
0.696984
0.71315
0.729345
0.745562
0.761798
0.778044
0.794296
0.810546
0.826788
0.843015
0.859218
0.87539
0.891522
0.907605
0.923629
0.939584
0.95546
0.971245
0.986928
1.0025
1.01794
1.03323
1.04838
1.06335
1.07814
1.09273
1.1071
1.12124
1.13512
1.14874
1.16207
1.17509
1.18779
1.20014
1.21213
1.22375
1.23495
1.24574
1.25609
1.26599
1.2754
1.28433
1.29275
1.30064
1.30799
1.31479
1.32102
1.32668
1.33176
1.33625
1.34015
1.34345
1.34616
1.34827
1.34981
1.35076
1.35116
1.35102
1.35034
1.34917
1.34752
1.34543
1.34293
1.34005
1.33684
1.33334
1.3296
1.32564
1.32153
1.31731
1.313
1.30867
1.30437
1.29978
1.29461
0.0400334
0.0346795
0.0300222
0.0257508
0.0215165
0.0173578
0.0133219
0.00943226
0.00571492
0.00219892
-0.00108632
-0.00411202
-0.0068505
-0.00927562
-0.0113631
-0.0130909
-0.0144391
-0.0153903
-0.0159293
-0.0160432
-0.0157216
-0.014956
-0.0137401
-0.0120695
-0.00994177
-0.00735589
-0.00431255
-0.00081385
0.00313687
0.00753507
0.0123752
0.0176508
0.0233545
0.0294783
0.0360137
0.0429514
0.0502819
0.0579953
0.0660813
0.0745294
0.0833291
0.0924697
0.10194
0.11173
0.121829
0.132226
0.14291
0.153871
0.165099
0.176584
0.188316
0.200286
0.212483
0.2249
0.237527
0.250355
0.263377
0.276585
0.28997
0.303525
0.317244
0.331118
0.345142
0.35931
0.373614
0.388049
0.40261
0.417291
0.432086
0.44699
0.462
0.477109
0.492313
0.507607
0.522988
0.538451
0.55399
0.569603
0.585285
0.601031
0.616838
0.6327
0.648614
0.664574
0.680577
0.696617
0.71269
0.72879
0.744911
0.761049
0.777197
0.793349
0.809498
0.825638
0.841761
0.85786
0.873925
0.88995
0.905925
0.92184
0.937685
0.95345
0.969124
0.984695
1.00015
1.01548
1.03067
1.0457
1.06057
1.07525
1.08973
1.10399
1.11803
1.13181
1.14533
1.15856
1.1715
1.18411
1.19638
1.2083
1.21984
1.23098
1.24171
1.25201
1.26186
1.27124
1.28014
1.28854
1.29642
1.30376
1.31057
1.31682
1.32251
1.32762
1.33215
1.3361
1.33945
1.34223
1.34442
1.34603
1.34707
1.34755
1.34749
1.3469
1.3458
1.34422
1.34219
1.33973
1.33687
1.33365
1.33011
1.32629
1.32221
1.31791
1.31343
1.3088
1.30407
1.29928
1.29404
1.28799
0.0459669
0.0398307
0.03458
0.0298526
0.0252344
0.02076
0.0164732
0.0123902
0.00852954
0.00491344
0.00156506
-0.00149271
-0.00423753
-0.00664812
-0.00870459
-0.0103887
-0.011684
-0.0125759
-0.0130519
-0.0131015
-0.0127158
-0.0118881
-0.0106134
-0.0088883
-0.00671119
-0.00408179
-0.00100128
0.00252792
0.00650222
0.010917
0.0157667
0.0210448
0.0267442
0.0328571
0.0393751
0.0462893
0.0535904
0.0612688
0.0693145
0.0777176
0.0864678
0.0955546
0.104968
0.114697
0.124731
0.135061
0.145675
0.156565
0.167719
0.179128
0.190783
0.202675
0.214793
0.22713
0.239676
0.252423
0.265364
0.278489
0.291792
0.305265
0.318902
0.332694
0.346636
0.360722
0.374944
0.389298
0.403777
0.418377
0.433091
0.447914
0.462842
0.47787
0.492993
0.508206
0.523506
0.538886
0.554344
0.569874
0.585473
0.601136
0.616858
0.632636
0.648464
0.664339
0.680254
0.696207
0.712191
0.728201
0.744231
0.760278
0.776333
0.792391
0.808445
0.82449
0.840516
0.856517
0.872485
0.88841
0.904285
0.9201
0.935845
0.95151
0.967083
0.982554
0.997911
1.01314
1.02823
1.04316
1.05793
1.07252
1.08691
1.10108
1.11503
1.12873
1.14217
1.15532
1.16818
1.18073
1.19294
1.2048
1.21628
1.22738
1.23807
1.24833
1.25816
1.26752
1.2764
1.28479
1.29267
1.30003
1.30686
1.31313
1.31885
1.324
1.32858
1.33258
1.336
1.33884
1.3411
1.34278
1.34389
1.34444
1.34445
1.34392
1.34288
1.34135
1.33935
1.3369
1.33403
1.33077
1.32716
1.32322
1.31898
1.31447
1.30971
1.30473
1.29958
1.29429
1.28841
1.28151
0.0517055
0.0448098
0.0389742
0.0337884
0.0287772
0.0239725
0.0194162
0.0151181
0.0110905
0.00734977
0.00391346
0.000799255
-0.0019754
-0.00439369
-0.00643978
-0.00809906
-0.00935835
-0.010206
-0.010632
-0.010628
-0.0101871
-0.00930424
-0.00797573
-0.00619941
-0.00397453
-0.00130163
0.00181752
0.00538003
0.00938197
0.0138185
0.0186839
0.0239717
0.0296747
0.0357853
0.0422951
0.0491955
0.0564774
0.0641314
0.0721479
0.0805171
0.0892289
0.0982733
0.10764
0.11732
0.127301
0.137575
0.148131
0.15896
0.170051
0.181396
0.192984
0.204808
0.216857
0.229123
0.241598
0.254273
0.267141
0.280193
0.293422
0.306821
0.320383
0.334101
0.347968
0.361979
0.376126
0.390405
0.404809
0.419332
0.433971
0.448719
0.463571
0.478523
0.493569
0.508706
0.523929
0.539232
0.554612
0.570065
0.585585
0.601169
0.616811
0.632509
0.648256
0.664049
0.679882
0.695752
0.711651
0.727577
0.743522
0.759482
0.77545
0.791421
0.807387
0.823342
0.839279
0.85519
0.871067
0.886902
0.902686
0.918409
0.934063
0.949637
0.965121
0.980502
0.995769
1.01091
1.02591
1.04077
1.05545
1.06996
1.08427
1.09837
1.11224
1.12587
1.13924
1.15234
1.16514
1.17763
1.1898
1.20161
1.21306
1.22413
1.2348
1.24504
1.25485
1.26421
1.2731
1.2815
1.28939
1.29678
1.30363
1.30994
1.3157
1.3209
1.32554
1.32959
1.33308
1.33598
1.3383
1.34005
1.34123
1.34184
1.3419
1.34143
1.34043
1.33892
1.33692
1.33446
1.33156
1.32824
1.32452
1.32044
1.31601
1.31126
1.30621
1.30087
1.29529
1.2895
1.28298
1.27526
0.0571663
0.0495363
0.043128
0.0374862
0.032078
0.026934
0.0220952
0.0175661
0.0133535
0.00946888
0.00592483
0.00273436
-8.94546e-05
-0.00253388
-0.00458684
-0.00623717
-0.00747477
-0.00829079
-0.00867768
-0.00862921
-0.00814054
-0.00720814
-0.00582983
-0.00400465
-0.00173289
0.000984059
0.00414373
0.00774269
0.0117766
0.0162402
0.0211275
0.0264321
0.0321467
0.0382635
0.0447743
0.0516706
0.0589434
0.0665834
0.0745814
0.0829275
0.0916121
0.100625
0.109958
0.119599
0.129539
0.139768
0.150277
0.161055
0.172095
0.183385
0.194917
0.206683
0.218673
0.230878
0.243291
0.255903
0.268707
0.281694
0.294858
0.308191
0.321686
0.335337
0.349136
0.363079
0.377158
0.391367
0.405702
0.420156
0.434725
0.449403
0.464185
0.479066
0.494041
0.509106
0.524256
0.539487
0.554795
0.570173
0.58562
0.601129
0.616696
0.632318
0.647989
0.663705
0.679461
0.695251
0.711072
0.726918
0.742783
0.758662
0.774549
0.790438
0.806322
0.822194
0.838048
0.853876
0.86967
0.885422
0.901123
0.916765
0.932337
0.94783
0.963232
0.978535
0.993724
1.00879
1.02372
1.0385
1.05311
1.06755
1.0818
1.09583
1.10965
1.12323
1.13655
1.1496
1.16236
1.17482
1.18695
1.19874
1.21017
1.22123
1.23189
1.24213
1.25195
1.26131
1.27022
1.27864
1.28657
1.29399
1.30088
1.30724
1.31305
1.31831
1.323
1.32712
1.33067
1.33364
1.33603
1.33784
1.33907
1.33974
1.33985
1.33942
1.33844
1.33694
1.33494
1.33245
1.32948
1.32608
1.32224
1.31799
1.31336
1.30835
1.30299
1.29728
1.29126
1.28498
1.27785
1.26934
0.0622772
0.0539389
0.0469724
0.0408802
0.0350752
0.0295874
0.0244578
0.0196864
0.0152755
0.0112322
0.00756491
0.00428246
0.00139396
-0.00109156
-0.00316549
-0.00481985
-0.00604749
-0.00684222
-0.00719886
-0.00711335
-0.00658274
-0.00560518
-0.00417994
-0.00230736
1.11996e-05
0.00277342
0.00597605
0.00961501
0.0136854
0.0181817
0.0230976
0.0284262
0.0341603
0.0402919
0.0468129
0.0537147
0.0609884
0.0686249
0.0766149
0.0849489
0.0936173
0.102611
0.111919
0.121533
0.131442
0.141638
0.152111
0.16285
0.173848
0.185095
0.196582
0.208299
0.22024
0.232394
0.244754
0.257313
0.270061
0.282992
0.296099
0.309374
0.32281
0.3364
0.35014
0.364021
0.378038
0.392185
0.406457
0.420848
0.435352
0.449966
0.464682
0.479498
0.494407
0.509405
0.524488
0.539652
0.55489
0.5702
0.585577
0.601016
0.616513
0.632064
0.647663
0.663306
0.678989
0.694706
0.710453
0.726224
0.742015
0.757818
0.773629
0.789442
0.80525
0.821046
0.836824
0.852575
0.868294
0.88397
0.899597
0.915164
0.930663
0.946084
0.961416
0.976649
0.991772
1.00677
1.02164
1.03636
1.05091
1.0653
1.07949
1.09348
1.10726
1.12079
1.13408
1.1471
1.15984
1.17227
1.18439
1.19617
1.2076
1.21866
1.22932
1.23958
1.24942
1.25881
1.26775
1.27621
1.28418
1.29165
1.2986
1.30502
1.31089
1.31621
1.32097
1.32516
1.32878
1.33181
1.33427
1.33614
1.33744
1.33815
1.33831
1.3379
1.33693
1.33543
1.33341
1.33087
1.32783
1.32432
1.32034
1.31592
1.31106
1.30579
1.30011
1.29402
1.28757
1.28081
1.27307
1.26382
0.0669746
0.057954
0.0504452
0.0439105
0.0377117
0.0318792
0.0264541
0.0214332
0.0168146
0.0126019
0.00879961
0.00541306
0.00244777
-9.06099e-05
-0.00219665
-0.00386536
-0.00509233
-0.0058739
-0.00620721
-0.00609028
-0.00552202
-0.00450228
-0.00303181
-0.00111224
0.00125393
0.00406339
0.00731206
0.0109951
0.0151072
0.0196421
0.0245932
0.0299534
0.0357151
0.0418703
0.0484108
0.0553278
0.0626125
0.0702558
0.0782485
0.0865812
0.0952445
0.104229
0.113525
0.123122
0.133013
0.143186
0.153633
0.164345
0.175312
0.186525
0.197976
0.209656
0.221557
0.23367
0.245987
0.2585
0.271202
0.284086
0.297143
0.310368
0.323753
0.337291
0.350977
0.364804
0.378766
0.392858
0.407073
0.421406
0.435853
0.450407
0.465064
0.479819
0.494667
0.509604
0.524625
0.539725
0.5549
0.570146
0.585457
0.600831
0.616262
0.631745
0.647277
0.662853
0.678467
0.694116
0.709793
0.725495
0.741215
0.756949
0.77269
0.788432
0.80417
0.819896
0.835604
0.851286
0.866936
0.882545
0.898104
0.913606
0.92904
0.944398
0.959669
0.974842
0.989908
1.00485
1.01967
1.03434
1.04885
1.06319
1.07735
1.0913
1.10505
1.11856
1.13183
1.14483
1.15756
1.16999
1.18211
1.19389
1.20533
1.21641
1.2271
1.23739
1.24726
1.2567
1.26568
1.27419
1.28222
1.28975
1.29677
1.30326
1.3092
1.3146
1.31943
1.3237
1.32739
1.3305
1.33302
1.33496
1.33631
1.33708
1.33726
1.33687
1.33592
1.33441
1.33235
1.32975
1.32663
1.323
1.31887
1.31426
1.30917
1.30362
1.29762
1.29115
1.28428
1.27704
1.26873
1.25875
0.0712021
0.0615245
0.05349
0.0465223
0.039935
0.0337592
0.0280372
0.0227626
0.0179303
0.0135407
0.00959508
0.00609554
0.00304442
0.000444324
-0.00170225
-0.00339308
-0.00462634
-0.00540076
-0.00571571
-0.00557122
-0.00496805
-0.00390772
-0.00239244
-0.000425196
0.00199036
0.0048499
0.00814843
0.0118804
0.0160397
0.0206196
0.0256132
0.0310128
0.0368106
0.0429984
0.0495677
0.0565098
0.0638157
0.0714763
0.0794824
0.0878247
0.0964938
0.10548
0.114775
0.124367
0.134249
0.144411
0.154844
0.165538
0.176485
0.187676
0.199101
0.210754
0.222624
0.234705
0.246989
0.259466
0.272131
0.284975
0.297992
0.311175
0.324516
0.33801
0.351649
0.365429
0.379343
0.393385
0.40755
0.421831
0.436225
0.450726
0.465329
0.480029
0.494822
0.509702
0.524665
0.539707
0.554823
0.570009
0.585261
0.600573
0.615942
0.631363
0.646832
0.662345
0.677895
0.69348
0.709093
0.72473
0.740385
0.756054
0.77173
0.787408
0.803081
0.818743
0.834387
0.850007
0.865595
0.881143
0.896643
0.912087
0.927465
0.942768
0.957987
0.973111
0.988129
1.00303
1.0178
1.03243
1.04691
1.06122
1.07535
1.08929
1.10302
1.11652
1.12978
1.14278
1.15551
1.16795
1.18009
1.1919
1.20336
1.21447
1.2252
1.23554
1.24546
1.25496
1.264
1.27258
1.28068
1.28829
1.29538
1.30195
1.30798
1.31347
1.31839
1.32274
1.32651
1.32969
1.33229
1.33429
1.3357
1.33651
1.33673
1.33637
1.33541
1.33388
1.33178
1.32912
1.3259
1.32215
1.31786
1.31305
1.30773
1.3019
1.29557
1.28873
1.28144
1.27374
1.26487
1.2542
0.0749093
0.0645991
0.0560552
0.048665
0.041696
0.0351807
0.0291626
0.0236328
0.0185835
0.0140124
0.00991792
0.00629931
0.00315609
0.000488058
-0.00170497
-0.00342332
-0.00466761
-0.00543884
-0.00573851
-0.0055686
-0.00493167
-0.00383088
-0.00226994
-0.000253152
0.00221462
0.00512799
0.00848103
0.0122674
0.0164801
0.0211122
0.0261558
0.0316031
0.0374458
0.0436755
0.0502834
0.0572606
0.0645981
0.0722866
0.080317
0.0886799
0.0973659
0.106366
0.11567
0.125269
0.135154
0.145315
0.155744
0.166432
0.177369
0.188547
0.199958
0.211593
0.223443
0.235502
0.24776
0.260211
0.272847
0.285661
0.298645
0.311794
0.325099
0.338556
0.352157
0.365896
0.379768
0.393767
0.407888
0.422124
0.436472
0.450925
0.465479
0.480129
0.494871
0.509699
0.52461
0.539599
0.55466
0.569791
0.584987
0.600243
0.615555
0.630918
0.646329
0.661782
0.677274
0.692798
0.708352
0.723929
0.739524
0.755133
0.77075
0.786368
0.801982
0.817586
0.833174
0.848737
0.86427
0.879764
0.895212
0.910605
0.925935
0.941192
0.956367
0.971451
0.986431
1.0013
1.01604
1.03064
1.0451
1.05939
1.07351
1.08744
1.10116
1.11466
1.12793
1.14094
1.15369
1.16616
1.17833
1.19017
1.20168
1.21284
1.22363
1.23402
1.24401
1.25358
1.2627
1.27137
1.27956
1.28725
1.29444
1.3011
1.30723
1.31281
1.31782
1.32226
1.32613
1.3294
1.33207
1.33414
1.33561
1.33647
1.33673
1.33638
1.33543
1.33387
1.33173
1.329
1.32568
1.3218
1.31735
1.31234
1.30678
1.30067
1.29401
1.28681
1.27911
1.27095
1.26154
1.25021
0.0780507
0.0671309
0.0580937
0.0502919
0.0429491
0.0360994
0.0297878
0.0240035
0.0187363
0.0139815
0.00973515
0.00599392
0.00275479
1.50104e-05
-0.00222805
-0.00397712
-0.00523508
-0.00600511
-0.00629073
-0.00609582
-0.0054247
-0.00428213
-0.00267333
-0.000603923
0.00192
0.00489196
0.00830506
0.0121521
0.0164254
0.0211171
0.026219
0.0317228
0.0376197
0.0439009
0.0505574
0.0575801
0.0649598
0.0726872
0.0807529
0.0891474
0.0978615
0.106886
0.116211
0.125827
0.135726
0.145898
0.156335
0.167026
0.177965
0.189141
0.200547
0.212174
0.224014
0.23606
0.248303
0.260737
0.273353
0.286144
0.299104
0.312227
0.325504
0.33893
0.3525
0.366206
0.380043
0.394006
0.408088
0.422285
0.436592
0.451004
0.465514
0.48012
0.494816
0.509598
0.524461
0.539401
0.554413
0.569493
0.584637
0.599841
0.6151
0.63041
0.645767
0.661166
0.676602
0.692072
0.707571
0.723092
0.738633
0.754187
0.769749
0.785313
0.800874
0.816426
0.831961
0.847475
0.862959
0.878406
0.893808
0.909159
0.924448
0.939667
0.954807
0.969859
0.984811
0.999653
1.01437
1.02896
1.04341
1.05769
1.07181
1.08574
1.09947
1.11298
1.12627
1.13931
1.1521
1.1646
1.17681
1.18871
1.20028
1.2115
1.22236
1.23283
1.24291
1.25256
1.26178
1.27054
1.27883
1.28663
1.29392
1.30069
1.30693
1.31262
1.31774
1.32228
1.32625
1.32961
1.33237
1.33452
1.33605
1.33697
1.33726
1.33693
1.33598
1.3344
1.33221
1.32941
1.32599
1.32198
1.31736
1.31215
1.30635
1.29996
1.29299
1.28542
1.27732
1.26872
1.25879
1.24682
0.0805848
0.0690768
0.0595619
0.0513595
0.0436515
0.0364735
0.0298726
0.0238361
0.018352
0.0134134
0.00901429
0.00514908
0.00181243
-0.00100069
-0.00329523
-0.00507612
-0.00634841
-0.00711732
-0.00738831
-0.00716713
-0.00645979
-0.00527266
-0.00361242
-0.00148605
0.00109912
0.0041355
0.00761519
0.01153
0.0158717
0.0206315
0.0258006
0.0313702
0.037331
0.0436739
0.0503896
0.0574686
0.0649014
0.0726787
0.0807909
0.0892285
0.0979821
0.107042
0.1164
0.126045
0.135969
0.146163
0.156618
0.167324
0.178274
0.189459
0.20087
0.2125
0.22434
0.236382
0.248619
0.261044
0.273649
0.286427
0.299371
0.312475
0.325732
0.339136
0.352681
0.36636
0.380169
0.394102
0.408153
0.422317
0.436589
0.450964
0.465437
0.480003
0.494659
0.509399
0.524219
0.539114
0.554081
0.569116
0.584213
0.599369
0.614579
0.62984
0.645147
0.660496
0.675883
0.691302
0.706749
0.72222
0.73771
0.753214
0.768727
0.784242
0.799755
0.81526
0.83075
0.846219
0.86166
0.877067
0.892431
0.907746
0.923002
0.938191
0.953304
0.968332
0.983264
0.998091
1.0128
1.02738
1.04182
1.05611
1.07024
1.08418
1.09793
1.11148
1.1248
1.13788
1.15071
1.16327
1.17554
1.18751
1.19915
1.21045
1.2214
1.23196
1.24213
1.25189
1.26122
1.27009
1.27849
1.28641
1.29383
1.30072
1.30708
1.31289
1.31813
1.32279
1.32687
1.33033
1.33319
1.33542
1.33703
1.338
1.33834
1.33803
1.33708
1.33549
1.33325
1.33037
1.32686
1.32271
1.31793
1.31252
1.30648
1.29982
1.29253
1.28461
1.27611
1.26709
1.25666
1.24407
0.0824735
0.0703971
0.0604193
0.0518271
0.0437626
0.0362633
0.0293782
0.0230934
0.0173948
0.0122741
0.00772325
0.00373468
0.000300932
-0.00258514
-0.0049306
-0.00674246
-0.00802781
-0.00879385
-0.00904789
-0.00879748
-0.00805031
-0.00681433
-0.00509767
-0.00290869
-0.000255947
0.00285181
0.00640567
0.0103965
0.0148152
0.0196522
0.0248982
0.0305436
0.0365788
0.0429941
0.0497798
0.0569262
0.0644236
0.0722622
0.0804325