/*--------------------------------*- C++ -*----------------------------------*\
  =========                 |
  \\      /  F ield         | OpenFOAM: The Open Source CFD Toolbox
   \\    /   O peration     | Website:  https://openfoam.org
    \\  /    A nd           | Version:  7
     \\/     M anipulation  |
\*---------------------------------------------------------------------------*/
FoamFile
{
    version     2.0;
    format      ascii;
    class       volScalarField;
    location    "0.0625";
    object      p;
}
// * * * * * * * * * * * * * * * * * * * * * * * * * * * * * * * * * * * * * //

dimensions      [0 2 -2 0 0 0 0];

internalField   nonuniform List<scalar> 
51200
(
-2.19065e-07
-9.30175e-05
-0.000147005
-0.000195674
-0.000257546
-0.00035315
-0.000494248
-0.000688983
-0.000943769
-0.00126169
-0.00163369
-0.00205313
-0.00251255
-0.0030006
-0.00349666
-0.00398873
-0.00447093
-0.00493344
-0.00536873
-0.00576338
-0.00611119
-0.0064066
-0.00665354
-0.00685453
-0.00700692
-0.00710616
-0.00715478
-0.00715917
-0.00712447
-0.00705085
-0.00694142
-0.00680318
-0.00664577
-0.00648079
-0.00631592
-0.00615579
-0.00600395
-0.00586986
-0.00575233
-0.00565384
-0.00557522
-0.00551255
-0.00546892
-0.00544308
-0.00543305
-0.0054328
-0.00543979
-0.00545487
-0.00547751
-0.00551154
-0.0055589
-0.00561316
-0.00566797
-0.00572374
-0.00578153
-0.00584134
-0.0059042
-0.00596746
-0.00602636
-0.00608099
-0.00613806
-0.00620447
-0.00628224
-0.00637131
-0.00647074
-0.00657673
-0.00668552
-0.00679757
-0.00691384
-0.00703297
-0.00715264
-0.00727081
-0.00738588
-0.00749612
-0.00760087
-0.00770134
-0.0077993
-0.00789544
-0.00798919
-0.0080808
-0.00817142
-0.00826096
-0.00834856
-0.00843446
-0.00851957
-0.0086029
-0.00868258
-0.0087581
-0.00882962
-0.00889776
-0.00896317
-0.0090252
-0.00908329
-0.00913701
-0.00918497
-0.00922663
-0.00926271
-0.00929406
-0.00932113
-0.0093422
-0.00935462
-0.00935882
-0.00935757
-0.00935284
-0.00934622
-0.00934003
-0.00933747
-0.00934179
-0.0093541
-0.00937291
-0.00939651
-0.00942369
-0.00945264
-0.00948075
-0.00950556
-0.00952569
-0.00954133
-0.00955389
-0.00956515
-0.00957726
-0.00959215
-0.00960983
-0.00962839
-0.00964595
-0.00966168
-0.00967568
-0.00968855
-0.00970005
-0.00970811
-0.0097104
-0.00970529
-0.00969192
-0.00967116
-0.00964588
-0.00961967
-0.00959607
-0.00957775
-0.00956601
-0.00956107
-0.00956236
-0.00956973
-0.00958362
-0.00960324
-0.00962624
-0.00964964
-0.00967043
-0.00968636
-0.00969745
-0.00970683
-0.00971795
-0.00973277
-0.00975249
-0.00977785
-0.00980838
-0.00984188
-0.00987535
-0.00990612
-0.00993313
-0.00995946
-0.0099949
4.04455e-05
-0.000175649
-0.000341803
-0.00048604
-0.000623928
-0.00077001
-0.000937445
-0.0011357
-0.00137648
-0.00166635
-0.00199801
-0.00236379
-0.0027619
-0.00318142
-0.00361147
-0.004037
-0.00445258
-0.00484529
-0.00521517
-0.00555983
-0.00586419
-0.00612421
-0.00634362
-0.00652546
-0.00666858
-0.00676902
-0.00682719
-0.00684679
-0.00683062
-0.00678253
-0.00670355
-0.00659878
-0.00647757
-0.00634892
-0.00621791
-0.00608969
-0.00597141
-0.00586326
-0.00577138
-0.00569573
-0.00563517
-0.00558952
-0.00555791
-0.00554027
-0.00553264
-0.00553332
-0.00554105
-0.00555399
-0.00557501
-0.0056072
-0.00564968
-0.00569962
-0.00575202
-0.00580252
-0.00585183
-0.00590252
-0.0059562
-0.00601241
-0.00606896
-0.00612601
-0.00618653
-0.00625322
-0.0063276
-0.00641127
-0.00650447
-0.00660534
-0.00671184
-0.00682276
-0.00693681
-0.00705168
-0.00716547
-0.00727746
-0.00738708
-0.00749273
-0.00759313
-0.0076899
-0.00778495
-0.00787793
-0.00796842
-0.0080575
-0.00814606
-0.00823291
-0.00831719
-0.00839998
-0.00848166
-0.00856118
-0.00863747
-0.00871044
-0.00878035
-0.00884674
-0.00890979
-0.00897054
-0.0090284
-0.0090819
-0.0091301
-0.00917187
-0.00920779
-0.00924048
-0.00927045
-0.00929522
-0.0093124
-0.00932158
-0.00932496
-0.00932547
-0.00932443
-0.00932331
-0.00932523
-0.00933218
-0.00934424
-0.00936164
-0.00938413
-0.00941014
-0.00943768
-0.00946374
-0.00948513
-0.00950191
-0.00951642
-0.00952945
-0.00954136
-0.00955447
-0.00957062
-0.00958909
-0.00960842
-0.00962742
-0.00964477
-0.00966044
-0.00967539
-0.00968835
-0.00969597
-0.00969682
-0.00969127
-0.00967869
-0.00965905
-0.00963528
-0.00961115
-0.0095893
-0.00957207
-0.0095612
-0.00955632
-0.00955602
-0.00956057
-0.00957149
-0.0095882
-0.00960765
-0.00962701
-0.00964418
-0.00965712
-0.00966555
-0.00967272
-0.00968255
-0.00969663
-0.00971566
-0.00974086
-0.00977271
-0.00980988
-0.00985002
-0.00989206
-0.00993544
-0.0099823
-0.0100425
5.34676e-05
-0.000265728
-0.000511037
-0.00072834
-0.000925515
-0.00111129
-0.00129887
-0.00149901
-0.00172778
-0.00199456
-0.00229449
-0.00261928
-0.00296802
-0.0033331
-0.00370657
-0.00407974
-0.00444033
-0.00478181
-0.00509864
-0.00539479
-0.00566354
-0.00589644
-0.00609214
-0.00625646
-0.00638907
-0.00649093
-0.0065574
-0.00658722
-0.00658505
-0.00655473
-0.00649868
-0.00642093
-0.0063288
-0.00622626
-0.00612297
-0.00602238
-0.00592916
-0.00584607
-0.00577684
-0.00572068
-0.00567597
-0.00564618
-0.00562577
-0.00561453
-0.00561087
-0.00561226
-0.00561932
-0.00563343
-0.00565517
-0.00568566
-0.0057254
-0.00577157
-0.00582051
-0.005869
-0.00591543
-0.00596065
-0.00600647
-0.00605447
-0.00610528
-0.0061606
-0.00622245
-0.0062905
-0.00636417
-0.00644511
-0.00653411
-0.00663007
-0.00673313
-0.00684265
-0.00695517
-0.00706715
-0.00717728
-0.00728528
-0.00739017
-0.00749101
-0.00758767
-0.0076812
-0.0077727
-0.00786211
-0.00794972
-0.00803633
-0.00812199
-0.00820566
-0.00828675
-0.00836649
-0.00844507
-0.00852119
-0.00859473
-0.00866586
-0.00873444
-0.00879998
-0.00886172
-0.00892078
-0.00897798
-0.0090311
-0.00907854
-0.00912042
-0.00915736
-0.00919157
-0.00922393
-0.00925167
-0.00927271
-0.00928724
-0.00929592
-0.00930056
-0.00930357
-0.00930656
-0.00931172
-0.00932091
-0.00933385
-0.00935071
-0.00937295
-0.00939963
-0.00942699
-0.00945141
-0.00947079
-0.00948553
-0.00949832
-0.00951113
-0.00952424
-0.00953871
-0.00955613
-0.0095759
-0.00959577
-0.00961478
-0.00963332
-0.00965149
-0.00966847
-0.00968198
-0.00968891
-0.00968803
-0.00968055
-0.00966743
-0.00964907
-0.00962728
-0.00960499
-0.00958489
-0.00956888
-0.00955765
-0.00955087
-0.00954843
-0.00955114
-0.00956005
-0.00957442
-0.0095913
-0.00960757
-0.00962119
-0.00963107
-0.0096378
-0.00964401
-0.00965269
-0.0096655
-0.00968384
-0.00970936
-0.00974279
-0.00978344
-0.00983026
-0.00988298
-0.00994043
-0.0100045
-0.0100886
4.5189e-06
-0.000391104
-0.00069943
-0.000971247
-0.00120879
-0.00142132
-0.00162453
-0.00182633
-0.00204454
-0.00228929
-0.00256293
-0.00285477
-0.0031602
-0.00347901
-0.00379879
-0.00412322
-0.00443689
-0.00473327
-0.00500798
-0.00526341
-0.00549509
-0.00569796
-0.00587283
-0.00602079
-0.00614441
-0.00624266
-0.00631153
-0.00634971
-0.00636051
-0.00634516
-0.00630888
-0.00625467
-0.0061854
-0.00610901
-0.00602826
-0.00595161
-0.00588106
-0.00582267
-0.00577368
-0.00573446
-0.00570742
-0.0056886
-0.00567825
-0.00567566
-0.00567652
-0.00568019
-0.00568933
-0.00570554
-0.00572883
-0.00575948
-0.00579665
-0.00583767
-0.00588163
-0.00592716
-0.00597147
-0.00601495
-0.00605848
-0.00610171
-0.00614689
-0.00619791
-0.00625646
-0.00632222
-0.00639529
-0.00647633
-0.00656451
-0.00665842
-0.00675855
-0.00686461
-0.00697359
-0.00708264
-0.00719016
-0.00729509
-0.00739624
-0.00749297
-0.00758589
-0.00767589
-0.00776357
-0.00784935
-0.00793419
-0.00801855
-0.00810109
-0.00818067
-0.00825781
-0.0083341
-0.00840954
-0.00848242
-0.00855318
-0.0086229
-0.00869011
-0.00875384
-0.00881462
-0.00887288
-0.00892855
-0.00898
-0.00902594
-0.00906763
-0.00910632
-0.00914223
-0.00917573
-0.0092059
-0.009231
-0.00925075
-0.00926544
-0.00927511
-0.00928129
-0.00928696
-0.00929445
-0.00930489
-0.00931896
-0.00933722
-0.00935986
-0.00938604
-0.00941302
-0.00943677
-0.00945504
-0.00946918
-0.00948161
-0.00949364
-0.00950676
-0.00952291
-0.00954223
-0.00956295
-0.00958358
-0.00960358
-0.00962303
-0.00964231
-0.00966039
-0.00967365
-0.00967851
-0.00967527
-0.00966648
-0.00965279
-0.00963454
-0.00961443
-0.00959499
-0.00957695
-0.00956115
-0.00954872
-0.00953996
-0.00953501
-0.00953548
-0.00954298
-0.00955586
-0.00957008
-0.00958267
-0.00959291
-0.00960075
-0.00960636
-0.00961174
-0.00961977
-0.009632
-0.00964959
-0.00967472
-0.00970905
-0.00975252
-0.00980485
-0.00986622
-0.00993517
-0.0100129
-0.0101147
-0.000107623
-0.000556503
-0.00090901
-0.00121376
-0.00147694
-0.0017021
-0.00190804
-0.00210822
-0.0023166
-0.00254386
-0.00279184
-0.0030576
-0.00333175
-0.00361026
-0.00388856
-0.00416662
-0.00444113
-0.00470082
-0.00494299
-0.00516435
-0.00536521
-0.00554433
-0.00569992
-0.00583247
-0.00594659
-0.00603922
-0.0061078
-0.00615244
-0.00617028
-0.00616847
-0.0061482
-0.00611165
-0.00606248
-0.00600498
-0.00594456
-0.00588719
-0.00583777
-0.00579806
-0.00576686
-0.00574473
-0.00573046
-0.00572019
-0.00571778
-0.00571989
-0.005725
-0.00573437
-0.00574732
-0.00576532
-0.00579101
-0.00582313
-0.00585926
-0.0058982
-0.00593856
-0.00597861
-0.0060183
-0.00605934
-0.00610176
-0.0061447
-0.00618978
-0.00623905
-0.00629327
-0.00635424
-0.00642456
-0.00650461
-0.00659245
-0.00668654
-0.00678628
-0.00688955
-0.00699397
-0.00709936
-0.00720443
-0.00730633
-0.00740401
-0.0074979
-0.00758817
-0.0076748
-0.00775877
-0.00784176
-0.00792468
-0.00800677
-0.00808605
-0.0081618
-0.00823529
-0.0083078
-0.00837954
-0.00844989
-0.0085188
-0.00858664
-0.00865208
-0.00871369
-0.00877277
-0.00883037
-0.00888471
-0.00893395
-0.00897839
-0.0090195
-0.00905869
-0.00909604
-0.00913064
-0.00916247
-0.00919146
-0.00921604
-0.00923519
-0.00924939
-0.00925922
-0.00926654
-0.00927492
-0.00928637
-0.00930132
-0.00932085
-0.00934484
-0.00937061
-0.00939573
-0.00941849
-0.00943704
-0.0094515
-0.00946421
-0.00947659
-0.00948973
-0.00950602
-0.00952633
-0.00954824
-0.00956955
-0.00959046
-0.00961154
-0.00963184
-0.00964881
-0.00965936
-0.00966167
-0.0096567
-0.00964686
-0.00963308
-0.00961582
-0.00959742
-0.00957997
-0.00956336
-0.00954757
-0.00953368
-0.00952268
-0.00951576
-0.00951498
-0.00952128
-0.00953215
-0.0095435
-0.00955307
-0.00956087
-0.00956721
-0.00957209
-0.00957693
-0.00958435
-0.00959584
-0.00961248
-0.00963665
-0.00967055
-0.00971507
-0.00977078
-0.0098386
-0.00991594
-0.0100029
-0.0101155
-0.000281278
-0.00075801
-0.00113313
-0.00145286
-0.00172437
-0.00195035
-0.00214696
-0.00233729
-0.00253328
-0.00274718
-0.00297422
-0.00321572
-0.00346748
-0.00371876
-0.00396793
-0.00421146
-0.00445319
-0.00468263
-0.00489933
-0.00509908
-0.00527812
-0.00543793
-0.00557873
-0.0057016
-0.00580586
-0.00589297
-0.00596057
-0.00600502
-0.00603044
-0.00603843
-0.00602955
-0.00600498
-0.00596977
-0.00592463
-0.00587937
-0.00583787
-0.005804
-0.00577771
-0.00576103
-0.00575148
-0.00574574
-0.00574402
-0.0057448
-0.00574923
-0.0057591
-0.00577264
-0.00578983
-0.00581146
-0.00583815
-0.00587011
-0.00590651
-0.00594577
-0.0059849
-0.0060219
-0.00605795
-0.00609544
-0.0061357
-0.00617915
-0.00622566
-0.00627486
-0.00632773
-0.00638693
-0.00645486
-0.0065321
-0.0066182
-0.00671214
-0.00681154
-0.00691316
-0.007015
-0.00711745
-0.0072195
-0.00731813
-0.00741301
-0.00750501
-0.00759314
-0.00767717
-0.00775908
-0.00784082
-0.00792228
-0.00800195
-0.00807848
-0.00815145
-0.00822203
-0.00829142
-0.00835971
-0.00842754
-0.00849529
-0.0085614
-0.00862432
-0.00868387
-0.00874114
-0.00879719
-0.00885016
-0.00889763
-0.00894093
-0.00898193
-0.00902056
-0.00905744
-0.00909333
-0.00912761
-0.00915953
-0.00918753
-0.00920965
-0.00922616
-0.00923866
-0.00924821
-0.00925715
-0.00926877
-0.00928477
-0.00930535
-0.00932963
-0.00935512
-0.00937913
-0.00940043
-0.00941865
-0.00943397
-0.00944724
-0.00945965
-0.00947321
-0.00949014
-0.00951038
-0.00953191
-0.00955369
-0.0095759
-0.00959804
-0.00961826
-0.00963348
-0.00964086
-0.00964011
-0.00963356
-0.00962349
-0.00961034
-0.00959441
-0.00957789
-0.00956219
-0.00954621
-0.00952966
-0.00951435
-0.00950203
-0.00949425
-0.00949285
-0.00949802
-0.00950662
-0.00951491
-0.00952189
-0.00952824
-0.00953392
-0.00953842
-0.00954282
-0.00954952
-0.00955993
-0.00957502
-0.00959712
-0.00962912
-0.00967267
-0.00972887
-0.0097995
-0.00988163
-0.00997372
-0.0100913
-0.000513438
-0.00099451
-0.00137353
-0.00169425
-0.00196005
-0.00217678
-0.00236417
-0.00253824
-0.00271824
-0.00291413
-0.00312673
-0.0033479
-0.00357738
-0.00380914
-0.00403817
-0.00426066
-0.004475
-0.00468231
-0.00487607
-0.0050566
-0.0052221
-0.00536946
-0.00549981
-0.00561204
-0.00570914
-0.0057899
-0.00585446
-0.0059014
-0.00593241
-0.00594619
-0.0059451
-0.00593081
-0.00590211
-0.00586773
-0.00583329
-0.00580296
-0.00578099
-0.00576646
-0.0057585
-0.00575657
-0.00575742
-0.00576034
-0.00576327
-0.00577065
-0.00578359
-0.00580031
-0.0058219
-0.00584734
-0.00587542
-0.00590753
-0.00594356
-0.00598146
-0.00601888
-0.00605507
-0.00609075
-0.00612752
-0.00616732
-0.00621083
-0.00625669
-0.00630464
-0.00635744
-0.00641734
-0.00648477
-0.00656025
-0.00664442
-0.00673667
-0.00683421
-0.00693413
-0.00703479
-0.00713521
-0.00723419
-0.00733014
-0.00742304
-0.00751321
-0.00759945
-0.00768211
-0.00776359
-0.00784505
-0.00792522
-0.00800254
-0.00807687
-0.00814809
-0.00821614
-0.00828265
-0.00834869
-0.00841435
-0.00847986
-0.00854363
-0.00860404
-0.00866186
-0.00871778
-0.00877156
-0.00882254
-0.00886941
-0.00891242
-0.00895311
-0.00899147
-0.00902779
-0.00906407
-0.00910073
-0.00913528
-0.00916498
-0.00918868
-0.00920679
-0.00922048
-0.00923136
-0.00924165
-0.00925393
-0.00927036
-0.00929146
-0.0093154
-0.00933947
-0.00936246
-0.00938372
-0.00940191
-0.00941675
-0.00942975
-0.00944243
-0.00945637
-0.00947341
-0.00949348
-0.00951471
-0.00953644
-0.00955904
-0.00958124
-0.00960025
-0.00961311
-0.00961798
-0.00961551
-0.00960821
-0.00959806
-0.00958553
-0.00957107
-0.00955623
-0.00954154
-0.00952551
-0.00950799
-0.00949146
-0.00947848
-0.00947055
-0.00946869
-0.00947235
-0.00947833
-0.00948367
-0.0094884
-0.00949355
-0.00949877
-0.00950331
-0.00950778
-0.00951372
-0.00952232
-0.0095349
-0.00955411
-0.00958314
-0.0096239
-0.00967839
-0.0097488
-0.00983184
-0.00992503
-0.0100429
-0.000803914
-0.00126638
-0.00163227
-0.00193968
-0.00219269
-0.00239561
-0.00256786
-0.00272788
-0.00289266
-0.00306935
-0.00326327
-0.00346671
-0.00367775
-0.00389087
-0.00410343
-0.00431067
-0.00450672
-0.00469251
-0.00487023
-0.00503507
-0.00518686
-0.00532533
-0.0054467
-0.00555112
-0.00564031
-0.00571624
-0.00577798
-0.00582754
-0.00586094
-0.00588085
-0.00588622
-0.00587622
-0.0058549
-0.00582923
-0.00580201
-0.00578181
-0.00576834
-0.00576219
-0.00576192
-0.00576485
-0.00576897
-0.00577296
-0.0057789
-0.00578889
-0.00580315
-0.00582285
-0.00584726
-0.00587498
-0.00590612
-0.00594027
-0.00597562
-0.00601089
-0.0060457
-0.00608071
-0.00611686
-0.00615519
-0.00619687
-0.00624117
-0.00628628
-0.00633316
-0.00638567
-0.00644554
-0.00651234
-0.00658705
-0.00667019
-0.00676046
-0.00685569
-0.00695368
-0.00705282
-0.00715135
-0.00724771
-0.0073414
-0.0074328
-0.0075216
-0.00760668
-0.00768898
-0.00777078
-0.00785194
-0.00793093
-0.00800673
-0.00807926
-0.00814863
-0.00821472
-0.00827888
-0.00834282
-0.00840636
-0.00846879
-0.0085294
-0.00858732
-0.00864324
-0.008698
-0.00875055
-0.00879974
-0.00884594
-0.00888968
-0.00893068
-0.00896888
-0.00900561
-0.00904259
-0.00908004
-0.00911572
-0.00914638
-0.00917085
-0.00919017
-0.0092051
-0.00921662
-0.00922771
-0.00924145
-0.00925883
-0.00927932
-0.00930158
-0.00932406
-0.00934617
-0.00936726
-0.00938553
-0.00940009
-0.00941247
-0.00942485
-0.00943883
-0.0094557
-0.00947531
-0.00949617
-0.00951775
-0.00954005
-0.00956106
-0.00957768
-0.00958793
-0.00959117
-0.00958841
-0.00958149
-0.00957149
-0.00955913
-0.00954568
-0.00953201
-0.00951748
-0.00950069
-0.00948231
-0.00946534
-0.00945218
-0.00944388
-0.00944101
-0.00944274
-0.009446
-0.00944841
-0.00945098
-0.00945518
-0.00946017
-0.00946468
-0.00946907
-0.00947445
-0.00948144
-0.00949101
-0.0095061
-0.0095308
-0.00956813
-0.00961993
-0.00968783
-0.00976836
-0.00985885
-0.0099726
-0.00115287
-0.00157936
-0.00191956
-0.00220352
-0.00243206
-0.00261288
-0.00276966
-0.00291624
-0.00306391
-0.00322384
-0.00339688
-0.00358351
-0.00377549
-0.00397186
-0.00416782
-0.00435908
-0.00454155
-0.00471387
-0.00487464
-0.00502669
-0.00516779
-0.0052961
-0.00540933
-0.00550787
-0.00558989
-0.0056609
-0.005722
-0.005771
-0.00580865
-0.00583192
-0.00583948
-0.00583405
-0.00582036
-0.00580037
-0.0057817
-0.0057684
-0.00576106
-0.00576187
-0.00576781
-0.00577393
-0.00578037
-0.00578561
-0.00579378
-0.0058058
-0.00582169
-0.00584334
-0.00586947
-0.00589894
-0.00593226
-0.00596801
-0.00600301
-0.00603638
-0.00606979
-0.00610436
-0.00614059
-0.00618002
-0.00622351
-0.00626887
-0.00631442
-0.00636221
-0.00641508
-0.00647367
-0.00653863
-0.00661234
-0.00669464
-0.00678291
-0.00687612
-0.0069728
-0.00707002
-0.00716585
-0.00725979
-0.00735193
-0.00744207
-0.00752972
-0.00761454
-0.00769739
-0.00777954
-0.00786016
-0.00793776
-0.0080124
-0.00808398
-0.00815157
-0.00821538
-0.00827739
-0.00833915
-0.00840011
-0.00845896
-0.00851564
-0.00857108
-0.00862566
-0.00867891
-0.00873027
-0.00877924
-0.00882567
-0.00886998
-0.00891174
-0.00895064
-0.00898825
-0.00902616
-0.0090636
-0.00909856
-0.00912924
-0.00915477
-0.00917537
-0.00919139
-0.00920396
-0.00921613
-0.00923086
-0.00924861
-0.00926827
-0.00928872
-0.00930947
-0.00933049
-0.00935105
-0.00936906
-0.00938329
-0.00939523
-0.00940743
-0.00942156
-0.00943809
-0.00945661
-0.00947644
-0.00949754
-0.00951898
-0.00953766
-0.00955109
-0.0095592
-0.00956207
-0.00955967
-0.00955301
-0.00954321
-0.00953123
-0.00951817
-0.0095045
-0.00948957
-0.00947235
-0.00945363
-0.00943632
-0.00942288
-0.0094142
-0.00940994
-0.00940879
-0.00940865
-0.00940856
-0.00940983
-0.00941326
-0.00941744
-0.0094213
-0.00942548
-0.00943053
-0.00943586
-0.00944209
-0.00945275
-0.00947269
-0.00950573
-0.00955379
-0.00961766
-0.00969314
-0.00977753
-0.00988321
-0.00156402
-0.0019369
-0.00223726
-0.002491
-0.00269246
-0.00284643
-0.0029775
-0.00310633
-0.00323994
-0.00338192
-0.00353767
-0.00370463
-0.00387628
-0.00405581
-0.00423484
-0.00441112
-0.00457876
-0.0047374
-0.0048878
-0.00502742
-0.00515637
-0.00527473
-0.00538059
-0.00547022
-0.00554941
-0.00561733
-0.0056762
-0.00572611
-0.00576484
-0.00578899
-0.00579982
-0.00579909
-0.0057897
-0.00577644
-0.00576596
-0.00575701
-0.00575572
-0.00576188
-0.00577119
-0.0057812
-0.00578984
-0.00579749
-0.00580727
-0.00582072
-0.00583889
-0.00586215
-0.00589036
-0.00592253
-0.00595681
-0.00599174
-0.00602591
-0.00605881
-0.00609211
-0.00612727
-0.00616466
-0.006205
-0.0062489
-0.006295
-0.0063421
-0.00639139
-0.00644441
-0.00650206
-0.00656572
-0.00663755
-0.00671785
-0.00680456
-0.00689637
-0.00699134
-0.00708608
-0.00717929
-0.00727129
-0.00736187
-0.00745058
-0.00753742
-0.00762279
-0.00770665
-0.00778851
-0.00786799
-0.00794481
-0.00801862
-0.00808884
-0.00815453
-0.00821634
-0.00827653
-0.00833558
-0.00839249
-0.00844741
-0.00850112
-0.00855423
-0.008607
-0.00865888
-0.00870947
-0.00875886
-0.00880658
-0.00885193
-0.00889448
-0.00893446
-0.00897316
-0.00901135
-0.00904807
-0.00908209
-0.00911266
-0.00913922
-0.00916133
-0.00917893
-0.00919307
-0.00920647
-0.00922164
-0.00923897
-0.00925739
-0.00927611
-0.00929548
-0.0093159
-0.0093358
-0.00935257
-0.00936591
-0.00937817
-0.00939118
-0.00940528
-0.00942084
-0.00943832
-0.00945731
-0.00947678
-0.00949543
-0.00951106
-0.00952207
-0.0095287
-0.00953126
-0.00952932
-0.0095231
-0.00951327
-0.00950089
-0.00948768
-0.00947423
-0.00945915
-0.00944132
-0.00942227
-0.00940513
-0.00939165
-0.00938176
-0.00937491
-0.00937044
-0.00936733
-0.00936526
-0.00936517
-0.00936755
-0.00937097
-0.00937414
-0.0093774
-0.00938095
-0.0093841
-0.00938738
-0.0093942
-0.00940962
-0.00943787
-0.00948102
-0.00953911
-0.00960738
-0.00968322
-0.00977792
-0.00202651
-0.00233315
-0.0025822
-0.00279835
-0.00296995
-0.00309617
-0.00320144
-0.00330646
-0.00342072
-0.00354753
-0.00368549
-0.00383371
-0.00398864
-0.0041451
-0.00430815
-0.00446666
-0.00462024
-0.00476636
-0.00490427
-0.00503095
-0.00514953
-0.00525696
-0.00535184
-0.0054369
-0.00551164
-0.0055774
-0.00563573
-0.00568501
-0.00572288
-0.00574935
-0.00576336
-0.00576675
-0.00576241
-0.00575578
-0.00574913
-0.00574621
-0.00575034
-0.00575996
-0.00577229
-0.00578603
-0.00579714
-0.00580786
-0.00581948
-0.00583379
-0.00585357
-0.00587926
-0.00591022
-0.00594462
-0.00597987
-0.00601413
-0.00604708
-0.00607983
-0.00611369
-0.00614947
-0.00618814
-0.00623021
-0.00627523
-0.0063222
-0.00637046
-0.00642058
-0.00647336
-0.00653014
-0.00659313
-0.00666351
-0.00674135
-0.00682609
-0.00691635
-0.00700918
-0.00710115
-0.00719186
-0.00728204
-0.00737086
-0.0074582
-0.00754481
-0.00763049
-0.00771455
-0.00779606
-0.00787464
-0.00795059
-0.00802327
-0.00809167
-0.0081556
-0.00821581
-0.00827373
-0.00832948
-0.00838226
-0.00843318
-0.00848425
-0.00853572
-0.00858678
-0.00863718
-0.00868755
-0.00873792
-0.00878697
-0.00883358
-0.00887754
-0.0089188
-0.00895784
-0.00899533
-0.00903114
-0.0090647
-0.00909566
-0.00912367
-0.00914777
-0.00916699
-0.00918254
-0.00919746
-0.00921319
-0.00922913
-0.00924543
-0.00926313
-0.00928229
-0.00930177
-0.00932006
-0.00933587
-0.00934938
-0.00936209
-0.00937538
-0.00938972
-0.00940504
-0.00942129
-0.00943838
-0.00945552
-0.00947103
-0.00948305
-0.00949127
-0.00949696
-0.00949996
-0.00949821
-0.00949123
-0.00948071
-0.00946839
-0.00945551
-0.00944204
-0.00942661
-0.0094087
-0.00938994
-0.00937274
-0.00935806
-0.00934589
-0.0093362
-0.00932866
-0.00932277
-0.00931867
-0.00931724
-0.00931851
-0.0093209
-0.00932305
-0.00932487
-0.00932617
-0.00932635
-0.00932647
-0.00933013
-0.00934189
-0.00936531
-0.00940231
-0.00945297
-0.00951245
-0.00957789
-0.00965923
-0.00252677
-0.00275789
-0.00294723
-0.00311559
-0.00325405
-0.00335438
-0.00343453
-0.00351363
-0.00360638
-0.00371536
-0.00383833
-0.00396837
-0.0041031
-0.00424296
-0.0043862
-0.00452812
-0.00466567
-0.00479779
-0.00492151
-0.00503849
-0.00514435
-0.00524048
-0.00532759
-0.00540595
-0.00547558
-0.00554021
-0.00559678
-0.00564398
-0.00568218
-0.0057102
-0.00572773
-0.00573653
-0.00573771
-0.00573515
-0.0057317
-0.00573451
-0.00574237
-0.005755
-0.00577141
-0.00578796
-0.00580245
-0.00581554
-0.00582903
-0.00584574
-0.00586686
-0.00589436
-0.00592806
-0.00596404
-0.00599981
-0.0060347
-0.00606825
-0.00610103
-0.0061347
-0.00617103
-0.00621133
-0.00625518
-0.00630177
-0.0063507
-0.00640012
-0.00644958
-0.00650162
-0.00655831
-0.00662067
-0.00668937
-0.00676512
-0.00684805
-0.00693613
-0.00702605
-0.00711522
-0.00720352
-0.00729176
-0.00737892
-0.00746478
-0.00755097
-0.00763683
-0.00772035
-0.00780101
-0.00787899
-0.00795409
-0.0080253
-0.00809167
-0.00815356
-0.00821216
-0.00826789
-0.00832004
-0.0083689
-0.0084169
-0.00846574
-0.00851526
-0.00856498
-0.00861491
-0.00866532
-0.0087162
-0.00876641
-0.00881441
-0.0088594
-0.00890151
-0.00894083
-0.00897723
-0.0090116
-0.00904548
-0.00907845
-0.00910826
-0.00913362
-0.00915466
-0.00917224
-0.00918784
-0.0092028
-0.00921777
-0.00923331
-0.0092501
-0.00926819
-0.00928676
-0.00930416
-0.00931914
-0.00933263
-0.00934647
-0.00936091
-0.00937523
-0.00938947
-0.00940437
-0.00941984
-0.00943421
-0.00944568
-0.00945401
-0.0094604
-0.00946564
-0.00946827
-0.00946565
-0.00945773
-0.00944687
-0.00943484
-0.00942238
-0.00940925
-0.00939416
-0.00937646
-0.00935753
-0.00933936
-0.00932257
-0.00930732
-0.00929434
-0.00928397
-0.00927588
-0.00927004
-0.00926686
-0.00926626
-0.00926706
-0.00926793
-0.00926797
-0.00926651
-0.00926338
-0.00926041
-0.00926125
-0.00926943
-0.0092876
-0.00931768
-0.00935983
-0.00940919
-0.00946272
-0.00952898
-0.0030489
-0.00320363
-0.003329
-0.00343915
-0.00353618
-0.00361061
-0.00366745
-0.00372533
-0.00379451
-0.00388069
-0.00398824
-0.00410216
-0.00421955
-0.00434283
-0.00446697
-0.00459308
-0.0047135
-0.00483061
-0.00494216
-0.00504528
-0.00514064
-0.00522837
-0.00530754
-0.0053787
-0.0054449
-0.00550515
-0.00555811
-0.00560423
-0.00564238
-0.00567139
-0.00569297
-0.0057062
-0.00571172
-0.00571201
-0.00571363
-0.00571905
-0.0057297
-0.00574609
-0.00576615
-0.00578531
-0.00580356
-0.00581906
-0.00583434
-0.00585369
-0.00587756
-0.00590711
-0.00594209
-0.00597935
-0.00601663
-0.00605291
-0.00608761
-0.00612092
-0.00615482
-0.00619207
-0.00623401
-0.0062798
-0.00632818
-0.00637846
-0.0064287
-0.00647802
-0.00652961
-0.00658603
-0.00664746
-0.00671461
-0.00678879
-0.0068699
-0.00695519
-0.00704168
-0.00712837
-0.00721474
-0.00730044
-0.0073856
-0.00747066
-0.00755616
-0.00764124
-0.00772392
-0.00780378
-0.00788132
-0.00795548
-0.00802459
-0.00808888
-0.00814925
-0.00820592
-0.00825901
-0.00830832
-0.00835437
-0.00839985
-0.00844691
-0.008495
-0.00854332
-0.00859272
-0.00864388
-0.00869534
-0.00874529
-0.00879363
-0.00883994
-0.00888241
-0.00892055
-0.00895604
-0.00899082
-0.00902576
-0.00906019
-0.00909215
-0.00911974
-0.00914212
-0.00916019
-0.00917595
-0.00919062
-0.00920472
-0.00921953
-0.00923616
-0.00925385
-0.00927101
-0.00928677
-0.00930137
-0.00931596
-0.00933114
-0.00934605
-0.00935997
-0.00937352
-0.00938722
-0.00940039
-0.00941143
-0.00941932
-0.00942494
-0.00942999
-0.00943447
-0.00943604
-0.00943226
-0.00942361
-0.0094129
-0.00940185
-0.0093905
-0.00937816
-0.00936355
-0.00934594
-0.00932627
-0.00930605
-0.00928601
-0.00926702
-0.00925077
-0.009238
-0.00922798
-0.00922018
-0.00921484
-0.00921189
-0.00921036
-0.00920897
-0.00920666
-0.00920247
-0.00919633
-0.00919033
-0.00918804
-0.00919227
-0.0092049
-0.00922734
-0.00925969
-0.00929772
-0.00933867
-0.00938931
-0.00357781
-0.00365452
-0.00371767
-0.00377097
-0.00381575
-0.0038571
-0.00389535
-0.00393343
-0.00398254
-0.00404994
-0.0041336
-0.0042327
-0.00433616
-0.00444083
-0.00455226
-0.00465985
-0.0047641
-0.00486507
-0.00496192
-0.00505311
-0.00513948
-0.00521872
-0.00529078
-0.00535657
-0.00541695
-0.00547132
-0.00552151
-0.0055663
-0.00560415
-0.00563511
-0.00565899
-0.00567483
-0.00568318
-0.00568642
-0.00569173
-0.00569933
-0.00571272
-0.00573203
-0.00575446
-0.00577737
-0.00579835
-0.00581664
-0.00583514
-0.00585635
-0.00588247
-0.00591465
-0.00595135
-0.00599023
-0.00602984
-0.00606821
-0.00610384
-0.00613761
-0.00617274
-0.00621223
-0.00625591
-0.00630296
-0.00635309
-0.00640442
-0.0064547
-0.00650433
-0.00655636
-0.00661238
-0.00667259
-0.00673865
-0.0068116
-0.00689027
-0.00697259
-0.00705629
-0.00714045
-0.00722476
-0.00730829
-0.00739145
-0.00747559
-0.00756015
-0.00764367
-0.00772566
-0.00780551
-0.00788221
-0.00795475
-0.00802191
-0.00808408
-0.00814285
-0.00819818
-0.00824888
-0.00829533
-0.00833981
-0.00838436
-0.00842944
-0.00847553
-0.0085235
-0.00857312
-0.00862357
-0.00867428
-0.00872434
-0.00877268
-0.00881829
-0.00886011
-0.00889796
-0.0089333
-0.00896865
-0.00900547
-0.00904218
-0.0090757
-0.00910431
-0.0091278
-0.0091466
-0.00916191
-0.00917551
-0.0091892
-0.00920454
-0.00922143
-0.00923808
-0.00925339
-0.00926804
-0.00928294
-0.00929845
-0.00931418
-0.00932899
-0.0093425
-0.00935544
-0.00936782
-0.0093785
-0.0093865
-0.00939173
-0.00939563
-0.00939969
-0.00940307
-0.00940318
-0.00939839
-0.00938988
-0.00938038
-0.00937113
-0.00936145
-0.00935022
-0.009336
-0.00931788
-0.00929638
-0.00927298
-0.00924911
-0.00922639
-0.00920696
-0.00919172
-0.00917971
-0.00916988
-0.00916206
-0.00915607
-0.00915131
-0.00914697
-0.00914214
-0.0091354
-0.00912614
-0.00911667
-0.00911087
-0.009111
-0.0091177
-0.00913158
-0.00915305
-0.00917933
-0.00920806
-0.00924347
-0.00409903
-0.00409767
-0.00409792
-0.00409497
-0.00409182
-0.0040956
-0.00410989
-0.00413479
-0.004167
-0.00421495
-0.00428202
-0.00436099
-0.00444704
-0.00454127
-0.00463515
-0.00472609
-0.00481532
-0.00489997
-0.00498241
-0.00506294
-0.005139
-0.00521078
-0.00527702
-0.00533623
-0.00538957
-0.00543958
-0.00548701
-0.00553021
-0.00556837
-0.00560091
-0.00562589
-0.00564323
-0.00565286
-0.00565963
-0.00566623
-0.00567653
-0.00569238
-0.00571356
-0.0057379
-0.00576418
-0.0057877
-0.00580911
-0.00583083
-0.0058539
-0.00588171
-0.005916
-0.00595532
-0.005997
-0.00603912
-0.00607944
-0.00611621
-0.00615141
-0.00618856
-0.00622994
-0.00627536
-0.00632396
-0.0063753
-0.00642712
-0.00647752
-0.00652778
-0.00658017
-0.00663569
-0.00669514
-0.00676043
-0.00683206
-0.00690802
-0.0069872
-0.00706888
-0.00715099
-0.00723269
-0.00731446
-0.00739632
-0.00747878
-0.00756184
-0.00764425
-0.00772568
-0.00780566
-0.00788166
-0.00795172
-0.00801658
-0.00807769
-0.00813502
-0.00818812
-0.00823735
-0.00828299
-0.00832602
-0.00836894
-0.00841321
-0.0084587
-0.00850573
-0.00855463
-0.00860447
-0.00865385
-0.0087023
-0.00874976
-0.00879484
-0.00883565
-0.00887275
-0.00890897
-0.00894659
-0.0089855
-0.00902332
-0.00905755
-0.00908711
-0.00911141
-0.00913006
-0.00914453
-0.00915783
-0.00917227
-0.00918836
-0.00920487
-0.0092201
-0.00923405
-0.00924817
-0.00926319
-0.00927877
-0.00929424
-0.00930856
-0.00932133
-0.00933323
-0.00934415
-0.00935285
-0.00935873
-0.00936239
-0.00936534
-0.00936862
-0.0093709
-0.0093697
-0.00936447
-0.00935711
-0.00934989
-0.00934315
-0.00933548
-0.0093252
-0.00931076
-0.00929121
-0.00926696
-0.00923972
-0.00921172
-0.00918541
-0.0091631
-0.00914556
-0.00913144
-0.00911915
-0.0091082
-0.00909879
-0.00909069
-0.00908339
-0.00907583
-0.00906625
-0.00905379
-0.00904084
-0.0090312
-0.00902641
-0.00902623
-0.00903109
-0.00904194
-0.00905721
-0.00907444
-0.00909488
-0.00460241
-0.00452154
-0.00446105
-0.00440563
-0.00435556
-0.00432258
-0.00431233
-0.00432121
-0.00434144
-0.0043748
-0.00442291
-0.00448523
-0.00455638
-0.00463267
-0.00471164
-0.00479007
-0.00486232
-0.00493272
-0.00500315
-0.00507242
-0.00514037
-0.00520484
-0.00526275
-0.00531483
-0.00536311
-0.00540963
-0.00545373
-0.00549589
-0.00553458
-0.00556699
-0.00559271
-0.00561111
-0.00562225
-0.00563091
-0.00563888
-0.0056516
-0.00566931
-0.00569187
-0.0057187
-0.00574722
-0.00577378
-0.00579821
-0.0058216
-0.00584671
-0.00587683
-0.00591313
-0.00595492
-0.00599945
-0.00604409
-0.00608661
-0.00612528
-0.00616255
-0.006202
-0.00624476
-0.00629127
-0.00634137
-0.00639372
-0.00644597
-0.00649679
-0.00654756
-0.00659982
-0.00665483
-0.00671431
-0.0067789