/*--------------------------------*- C++ -*----------------------------------*\
  =========                 |
  \\      /  F ield         | OpenFOAM: The Open Source CFD Toolbox
   \\    /   O peration     | Website:  https://openfoam.org
    \\  /    A nd           | Version:  7
     \\/     M anipulation  |
\*---------------------------------------------------------------------------*/
FoamFile
{
    version     2.0;
    format      ascii;
    class       surfaceScalarField;
    location    "0.0625";
    object      phi;
}
// * * * * * * * * * * * * * * * * * * * * * * * * * * * * * * * * * * * * * //

dimensions      [0 3 -1 0 0 0 0];

internalField   nonuniform List<scalar> 
101920
(
-5.16686e-12
5.19741e-12
-5.40194e-12
2.32366e-13
1.06705e-11
-1.60675e-11
3.96347e-11
-2.89665e-11
7.6855e-11
-3.72192e-11
1.18961e-10
-4.21082e-11
1.63687e-10
-4.47251e-11
2.0909e-10
-4.54024e-11
2.53292e-10
-4.42015e-11
2.94478e-10
-4.11811e-11
3.31372e-10
-3.6894e-11
3.62563e-10
-3.11912e-11
3.87084e-10
-2.45233e-11
4.04136e-10
-1.70515e-11
4.13871e-10
-9.73449e-12
4.163e-10
-2.42642e-12
4.11359e-10
4.93896e-12
3.99892e-10
1.14676e-11
3.82221e-10
1.76679e-11
3.59086e-10
2.31356e-11
3.31474e-10
2.76113e-11
3.00826e-10
3.06475e-11
2.67529e-10
3.32987e-11
2.32416e-10
3.51113e-11
1.96434e-10
3.598e-11
1.60849e-10
3.55916e-11
1.26519e-10
3.4328e-11
9.42626e-11
3.22599e-11
6.46282e-11
2.96335e-11
3.83323e-11
2.62934e-11
1.59975e-11
2.23353e-11
-2.0519e-12
1.80501e-11
-1.57837e-11
1.37305e-11
-2.558e-11
9.79562e-12
-3.14575e-11
5.87738e-12
-3.40544e-11
2.597e-12
-3.35656e-11
-4.89784e-13
-3.05618e-11
-3.00486e-12
-2.53607e-11
-5.1997e-12
-1.82401e-11
-7.1196e-12
-9.53646e-12
-8.70289e-12
6.61974e-13
-1.02002e-11
1.18804e-11
-1.12208e-11
2.38282e-11
-1.19492e-11
3.59772e-11
-1.2149e-11
4.79675e-11
-1.19905e-11
5.95278e-11
-1.15601e-11
7.0428e-11
-1.09003e-11
8.03992e-11
-9.97221e-12
8.93061e-11
-8.90717e-12
9.71555e-11
-7.84919e-12
1.03903e-10
-6.74547e-12
1.098e-10
-5.89555e-12
1.15166e-10
-5.3631e-12
1.20097e-10
-4.9294e-12
1.2466e-10
-4.56304e-12
1.29021e-10
-4.35876e-12
1.33336e-10
-4.31413e-12
1.37665e-10
-4.32996e-12
1.42162e-10
-4.49615e-12
1.46836e-10
-4.67363e-12
1.515e-10
-4.66651e-12
1.56062e-10
-4.56223e-12
1.60534e-10
-4.47332e-12
1.64881e-10
-4.34907e-12
1.68983e-10
-4.10045e-12
1.72728e-10
-3.74341e-12
1.75993e-10
-3.26483e-12
1.78643e-10
-2.64999e-12
1.80561e-10
-1.91764e-12
1.81791e-10
-1.22899e-12
1.825e-10
-7.0971e-13
1.82752e-10
-2.52089e-13
1.82578e-10
1.7304e-13
1.82089e-10
4.86398e-13
1.81418e-10
6.69022e-13
1.80614e-10
8.03425e-13
1.797e-10
9.14074e-13
1.78783e-10
9.17919e-13
1.77901e-10
8.84719e-13
1.76978e-10
9.25168e-13
1.75953e-10
1.0244e-12
1.74781e-10
1.16927e-12
1.73396e-10
1.38436e-12
1.71717e-10
1.67902e-12
1.69725e-10
1.99091e-12
1.67444e-10
2.28132e-12
1.64885e-10
2.55972e-12
1.62078e-10
2.80769e-12
1.59038e-10
3.0401e-12
1.55746e-10
3.29253e-12
1.52212e-10
3.53328e-12
1.48496e-10
3.71569e-12
1.44645e-10
3.85103e-12
1.40649e-10
3.99592e-12
1.36506e-10
4.1426e-12
1.32291e-10
4.21319e-12
1.28084e-10
4.20551e-12
1.23929e-10
4.15467e-12
1.19923e-10
4.00638e-12
1.16239e-10
3.68468e-12
1.13054e-10
3.18597e-12
1.10471e-10
2.58425e-12
1.08507e-10
1.96434e-12
1.07169e-10
1.33876e-12
1.06435e-10
7.33105e-13
1.06154e-10
2.82174e-13
1.06064e-10
9.01687e-14
1.059e-10
1.64442e-13
1.05428e-10
4.72095e-13
1.04499e-10
9.2834e-13
1.03055e-10
1.44392e-12
1.01044e-10
2.01064e-12
9.84728e-11
2.57056e-12
9.55068e-11
2.96659e-12
9.23386e-11
3.16861e-12
8.90683e-11
3.27053e-12
8.57918e-11
3.27782e-12
8.26173e-11
3.1755e-12
7.95629e-11
3.05468e-12
7.66049e-11
2.9576e-12
7.37707e-11
2.83345e-12
7.10548e-11
2.71626e-12
6.83822e-11
2.67308e-12
6.57345e-11
2.64691e-12
6.31213e-11
2.61215e-12
6.04506e-11
2.66964e-12
5.7643e-11
2.80778e-12
5.47436e-11
2.90125e-12
5.17862e-11
2.95865e-12
4.87689e-11
3.01737e-12
4.57892e-11
2.97882e-12
4.3005e-11
2.78263e-12
4.05176e-11
2.48644e-12
3.83898e-11
2.12758e-12
3.67074e-11
1.68218e-12
3.5531e-11
1.17623e-12
3.47643e-11
7.66404e-13
3.42235e-11
5.40818e-13
3.38037e-11
4.21136e-13
3.33727e-11
4.32746e-13
3.26968e-11
6.76572e-13
3.16061e-11
1.08958e-12
3.00703e-11
1.53394e-12
2.81118e-11
1.95736e-12
2.57491e-11
2.36271e-12
2.31051e-11
2.64517e-12
2.03966e-11
2.71036e-12
1.7741e-11
2.65739e-12
1.51411e-11
2.60015e-12
1.25493e-11
2.59105e-12
9.91038e-12
2.63773e-12
7.13882e-12
2.76982e-12
4.13013e-12
3.00826e-12
9.61397e-13
3.16994e-12
-1.97582e-12
2.93822e-12
-3.97164e-12
1.99584e-12
-3.99748e-12
2.59493e-14
-1.41438e-12
-2.58282e-12
-1.41413e-12
-2.09336e-11
2.61287e-11
-3.6327e-11
1.56247e-11
-2.37946e-11
-2.85996e-11
1.05029e-11
-6.32666e-11
5.83308e-11
-8.50438e-11
1.14432e-10
-9.82087e-11
1.74751e-10
-1.05044e-10
2.36113e-10
-1.06765e-10
2.96027e-10
-1.04115e-10
3.52264e-10
-9.7423e-11
4.03004e-10
-8.76345e-11
4.46897e-10
-7.50815e-11
4.82506e-10
-6.01328e-11
5.09571e-10
-4.41158e-11
5.26998e-10
-2.71652e-11
5.3549e-10
-1.09165e-11
5.34845e-10
5.58129e-12
5.25592e-10
2.07223e-11
5.08478e-10
3.47791e-11
4.84723e-10
4.68931e-11
4.55057e-10
5.72762e-11
4.2031e-10
6.53928e-11
3.82049e-10
7.15573e-11
3.41549e-10
7.56125e-11
2.99889e-10
7.7639e-11
2.58108e-10
7.73669e-11
2.17386e-10
7.50487e-11
1.78802e-10
7.08406e-11
1.43532e-10
6.49061e-11
1.12156e-10
5.76727e-11
8.53208e-11
4.91702e-11
6.32319e-11
4.01387e-11
4.60633e-11
3.0899e-11
3.39594e-11
2.19019e-11
2.62502e-11
1.35887e-11
2.28815e-11
5.96669e-12
2.32234e-11
-8.30773e-13
2.70299e-11
-6.81084e-12
3.36933e-11
-1.18648e-11
4.29289e-11
-1.63543e-11
5.44151e-11
-2.01861e-11
6.76368e-11
-2.34184e-11
8.22808e-11
-2.58614e-11
9.79006e-11
-2.75686e-11
1.13947e-10
-2.81978e-11
1.29963e-10
-2.80068e-11
1.45542e-10
-2.71376e-11
1.60223e-10
-2.55808e-11
1.73841e-10
-2.35892e-11
1.86302e-10
-2.13681e-11
1.97461e-10
-1.90112e-11
2.07432e-10
-1.67203e-11
2.16436e-10
-1.49011e-11
2.24549e-10
-1.34793e-11
2.31898e-10
-1.22818e-11
2.3881e-10
-1.14753e-11
2.45455e-10
-1.10064e-11
2.51878e-10
-1.07388e-11
2.58218e-10
-1.06663e-11
2.64528e-10
-1.08046e-11
2.70747e-10
-1.0891e-11
2.76819e-10
-1.07346e-11
2.82775e-10
-1.05162e-11
2.88601e-10
-1.0297e-11
2.94205e-10
-9.95204e-12
2.99496e-10
-9.39179e-12
3.04354e-10
-8.60273e-12
3.08597e-10
-7.50994e-12
3.12097e-10
-6.15118e-12
3.14889e-10
-4.71032e-12
3.16996e-10
-3.33656e-12
3.18422e-10
-2.13669e-12
3.19265e-10
-1.0915e-12
3.1963e-10
-1.90121e-13
3.19592e-10
5.25566e-13
3.1922e-10
1.04373e-12
3.18633e-10
1.39077e-12
3.17909e-10
1.63406e-12
3.17063e-10
1.76166e-12
3.16133e-10
1.81397e-12
3.15103e-10
1.95326e-12
3.13891e-10
2.2369e-12
3.12422e-10
2.6424e-12
3.10653e-10
3.15537e-12
3.08552e-10
3.7794e-12
3.0606e-10
4.48164e-12
3.03168e-10
5.17192e-12
2.99917e-10
5.80838e-12
2.96291e-10
6.43101e-12
2.92272e-10
7.05854e-12
2.87919e-10
7.64697e-12
2.83293e-10
8.15771e-12
2.78406e-10
8.60097e-12
2.73263e-10
8.99272e-12
2.67917e-10
9.34079e-12
2.62435e-10
9.62456e-12
2.5686e-10
9.78946e-12
2.51248e-10
9.81966e-12
2.4571e-10
9.6921e-12
2.40407e-10
9.30828e-12
2.3547e-10
8.61952e-12
2.30987e-10
7.66873e-12
2.27052e-10
6.51849e-12
2.23733e-10
5.28209e-12
2.2099e-10
4.08317e-12
2.18717e-10
3.00685e-12
2.16781e-10
2.21918e-12
2.1496e-10
1.91072e-12
2.13025e-10
2.09948e-12
2.10795e-10
2.70455e-12
2.0806e-10
3.66393e-12
2.04668e-10
4.83485e-12
2.00655e-10
6.02379e-12
1.96111e-10
7.11544e-12
1.91076e-10
8.00077e-12
1.85675e-10
8.56787e-12
1.80085e-10
8.857e-12
1.74374e-10
8.98713e-12
1.68584e-10
8.96402e-12
1.62847e-10
8.79121e-12
1.5723e-10
8.57556e-12
1.51686e-10
8.37736e-12
1.46229e-10
8.17316e-12
1.40887e-10
8.01588e-12
1.35557e-10
7.97703e-12
1.30144e-10
8.0247e-12
1.24687e-10
8.12554e-12
1.19197e-10
8.29468e-12
1.13605e-10
8.48992e-12
1.07931e-10
8.63064e-12
1.02289e-10
8.66013e-12
9.67195e-11
8.55043e-12
9.12211e-11
8.28166e-12
8.59252e-11
7.78232e-12
8.10236e-11
7.0302e-12
7.65571e-11
6.14981e-12
7.24795e-11
5.25388e-12
6.88079e-11
4.43654e-12
6.5495e-11
3.85054e-12
6.23225e-11
3.59082e-12
5.90674e-11
3.68743e-12
5.56206e-11
4.12579e-12
5.18816e-11
4.83186e-12
4.77048e-11
5.71283e-12
4.30319e-11
6.63139e-12
3.79461e-11
7.4479e-12
3.25412e-11
8.0476e-12
2.68517e-11
8.39653e-12
2.09322e-11
8.57575e-12
1.4898e-11
8.63537e-12
8.82896e-12
8.66287e-12
2.70922e-12
8.76146e-12
-3.41599e-12
8.89688e-12
-9.28196e-12
8.87264e-12
-1.44103e-11
8.29521e-12
-1.80437e-11
6.57026e-12
-1.89966e-11
2.94823e-12
-1.55351e-11
-3.43586e-12
-6.9067e-12
-1.12117e-11
-8.32082e-12
-3.62244e-11
6.2358e-11
-7.40875e-11
5.34864e-11
-8.21249e-11
-2.05586e-11
-6.7267e-11
-7.81269e-11
-3.79667e-11
-1.14344e-10
-3.45488e-13
-1.35834e-10
4.13887e-11
-1.46778e-10
8.44462e-11
-1.49827e-10
1.26871e-10
-1.46543e-10
1.67319e-10
-1.37867e-10
2.04417e-10
-1.24734e-10
2.37703e-10
-1.0837e-10
2.66435e-10
-8.88633e-11
2.9032e-10
-6.8003e-11
3.09085e-10
-4.59286e-11
3.22343e-10
-2.41755e-11
3.30531e-10
-2.60377e-12
3.3369e-10
1.75658e-11
3.3236e-10
3.61098e-11
3.26351e-10
5.29028e-11
3.16853e-10
6.67716e-11
3.04305e-10
7.79454e-11
2.89371e-10
8.64934e-11
2.72393e-10
9.25863e-11
2.54434e-10
9.56038e-11
2.35992e-10
9.58092e-11
2.17822e-10
9.32171e-11
2.00484e-10
8.8181e-11
1.84294e-10
8.10924e-11
1.69869e-10
7.20938e-11
1.57358e-10
6.1683e-11
1.47221e-10
5.02758e-11
1.39349e-10
3.87681e-11
1.33898e-10
2.73503e-11
1.30805e-10
1.66799e-11
1.30195e-10
6.57935e-12
1.31561e-10
-2.19605e-12
1.35002e-10
-1.0251e-11
1.40219e-10
-1.70827e-11
1.4691e-10
-2.30463e-11
1.55013e-10
-2.82906e-11
1.63948e-10
-3.23534e-11
1.73823e-10
-3.57366e-11
1.84016e-10
-3.77619e-11
1.94541e-10
-3.87227e-11
2.05183e-10
-3.86487e-11
2.15562e-10
-3.75177e-11
2.25603e-10
-3.56214e-11
2.35162e-10
-3.31455e-11
2.44087e-10
-3.02914e-11
2.52425e-10
-2.73466e-11
2.60234e-10
-2.45263e-11
2.67376e-10
-2.20401e-11
2.73905e-10
-2.00083e-11
2.79966e-10
-1.83407e-11
2.85548e-10
-1.70574e-11
2.90713e-10
-1.6172e-11
2.95571e-10
-1.55948e-11
3.00216e-10
-1.5312e-11
3.0462e-10
-1.52108e-11
3.08801e-10
-1.50732e-11
3.1285e-10
-1.47841e-11
3.16758e-10
-1.44254e-11
3.20447e-10
-1.39848e-11
3.23881e-10
-1.3382e-11
3.2706e-10
-1.25688e-11
3.29952e-10
-1.14949e-11
3.32561e-10
-1.01176e-11
3.34858e-10
-8.44678e-12
3.36835e-10
-6.68728e-12
3.38517e-10
-5.01937e-12
3.39871e-10
-3.49042e-12
3.409e-10
-2.12295e-12
3.41653e-10
-9.48231e-13
3.42199e-10
-2.0732e-14
3.42546e-10
6.99789e-13
3.42676e-10
1.262e-12
3.42658e-10
1.65439e-12
3.42505e-10
1.91581e-12
3.4217e-10
2.14703e-12
3.41643e-10
2.47757e-12
3.40944e-10
2.93437e-12
3.40077e-10
3.50947e-12
3.38974e-10
4.25771e-12
3.37624e-10
5.12952e-12
3.36059e-10
6.04804e-12
3.34241e-10
6.99059e-12
3.32139e-10
7.91003e-12
3.29766e-10
8.80338e-12
3.2714e-10
9.68429e-12
3.24279e-10
1.05078e-11
3.21181e-10
1.12548e-11
3.17871e-10
1.19102e-11
3.14401e-10
1.2462e-11
3.10782e-10
1.29571e-11
3.07029e-10
1.33747e-11
3.03201e-10
1.36172e-11
2.99356e-10
1.36661e-11
2.95534e-10
1.3515e-11
2.91767e-10
1.30764e-11
2.88086e-10
1.23012e-11
2.84511e-10
1.12457e-11
2.81025e-10
1.00044e-11
2.77627e-10
8.67995e-12
2.74314e-10
7.39647e-12
2.71015e-10
6.30697e-12
2.67655e-10
5.57888e-12
2.64213e-10
5.35351e-12
2.60617e-10
5.69477e-12
2.56777e-10
6.54444e-12
2.52683e-10
7.75679e-12
2.48318e-10
9.20001e-12
2.43602e-10
1.07399e-11
2.38547e-10
1.21711e-11
2.33225e-10
1.33246e-11
2.27618e-10
1.41759e-11
2.21727e-10
1.47486e-11
2.15662e-10
1.50512e-11
2.09479e-10
1.5146e-11
2.03153e-10
1.51171e-11
1.9674e-10
1.49896e-11
1.90317e-10
1.48003e-11
1.83839e-10
1.46499e-11
1.77262e-10
1.45912e-11
1.70655e-10
1.45835e-11
1.64046e-10
1.46342e-11
1.57359e-10
1.48154e-11
1.50577e-10
1.50775e-11
1.43783e-10
1.52828e-11
1.36993e-10
1.54182e-11
1.30161e-10
1.54914e-11
1.2332e-10
1.53904e-11
1.16559e-10
1.50424e-11
1.09879e-10
1.44624e-11
1.03244e-10
1.36644e-11
9.67055e-11
1.26885e-11
9.03128e-11
1.16475e-11
8.40184e-11
1.07327e-11
7.77726e-11
1.00976e-11
7.15779e-11
9.78517e-12
6.54158e-11
9.84694e-12
5.92059e-11
1.03336e-11
5.28584e-11
1.11788e-11
4.63571e-11
1.22147e-11
3.96916e-11
1.32992e-11
3.27942e-11
1.43475e-11
2.561e-11
1.5233e-11
1.81413e-11
1.58648e-11
1.04303e-11
1.62852e-11
2.50171e-12
1.65618e-11
-5.55445e-12
1.67173e-11
-1.35139e-11
1.67211e-11
-2.10371e-11
1.64217e-11
-2.76415e-11
1.54784e-11
-3.26344e-11
1.3288e-11
-3.49827e-11
8.91785e-12
-3.32865e-11
1.25209e-12
-2.57211e-11
-1.10009e-11
-1.14763e-11
-2.54566e-11
-1.97971e-11
-4.58697e-11
1.08226e-10
-9.93954e-11
1.0701e-10
-1.23015e-10
3.0607e-12
-1.2358e-10
-7.75616e-11
-1.09846e-10
-1.28076e-10
-8.77037e-11
-1.57974e-10
-6.13344e-11
-1.73148e-10
-3.29665e-11
-1.78189e-10
-4.57229e-12
-1.74937e-10
2.32713e-11
-1.65712e-10
4.97968e-11
-1.51259e-10
7.44935e-11
-1.33067e-10
9.76778e-11
-1.12046e-10
1.18531e-10
-8.88548e-11
1.37754e-10
-6.5152e-11
1.54288e-10
-4.07087e-11
1.69091e-10
-1.74099e-11
1.81246e-10
5.40731e-12
1.91513e-10
2.58436e-11
2.00028e-10
4.43854e-11
2.06484e-10
6.03191e-11
2.1103e-10
7.33965e-11
2.14142e-10
8.33818e-11
2.16315e-10
9.04141e-11
2.17574e-10
9.43451e-11
2.18133e-10
9.52523e-11
2.18106e-10
9.32453e-11
2.1781e-10
8.84761e-11
2.17493e-10
8.14091e-11
2.17333e-10
7.22559e-11
2.17355e-10
6.16622e-11
2.17517e-10
5.01137e-11
2.1823e-10
3.80567e-11
2.19382e-10
2.61982e-11
2.21342e-10
1.47197e-11
2.23785e-10
4.136e-12
2.27229e-10
-5.63979e-12
2.31234e-10
-1.42553e-11
2.36035e-10
-2.18806e-11
2.41402e-10
-2.84128e-11
2.47172e-10
-3.40613e-11
2.53347e-10
-3.85281e-11
2.59619e-10
-4.20106e-11
2.66092e-10
-4.42345e-11
2.72665e-10
-4.52949e-11
2.79177e-10
-4.51602e-11
2.85696e-10
-4.40394e-11
2.92143e-10
-4.20679e-11
2.9844e-10
-3.94455e-11
3.04582e-10
-3.64358e-11
3.10459e-10
-3.32234e-11
3.16055e-10
-3.01222e-11
3.21339e-10
-2.73255e-11
3.26245e-10
-2.49141e-11
3.30819e-10
-2.29148e-11
3.35068e-10
-2.13069e-11
3.38963e-10
-2.00657e-11
3.42492e-10
-1.91221e-11
3.45626e-10
-1.8445e-11
3.48378e-10
-1.79614e-11
3.50844e-10
-1.75365e-11
3.53137e-10
-1.70781e-11
3.55284e-10
-1.65733e-11
3.57243e-10
-1.59429e-11
3.58982e-10
-1.51231e-11
3.60531e-10
-1.41197e-11
3.61896e-10
-1.28595e-11
3.63106e-10
-1.13291e-11
3.64263e-10
-9.60571e-12
3.65404e-10
-7.82741e-12
3.66491e-10
-6.10369e-12
3.67464e-10
-4.46262e-12
3.68333e-10
-2.99279e-12
3.69123e-10
-1.73841e-12
3.69776e-10
-6.75434e-13
3.70289e-10
1.84571e-13
3.70688e-10
8.61929e-13
3.70958e-10
1.38577e-12
3.71054e-10
1.82143e-12
3.70953e-10
2.24716e-12
3.70696e-10
2.73563e-12
3.7027e-10
3.36053e-12
3.6968e-10
4.09861e-12
3.68971e-10
4.96486e-12
3.68116e-10
5.98463e-12
3.67098e-10
7.06491e-12
3.6594e-10
8.14744e-12
3.64618e-10
9.23317e-12
3.63117e-10
1.03048e-11
3.61444e-10
1.13573e-11
3.59612e-10
1.23377e-11
3.57654e-10
1.32126e-11
3.55536e-10
1.40285e-11
3.53233e-10
1.4765e-11
3.50824e-10
1.5366e-11
3.48362e-10
1.58362e-11
3.45816e-10
1.6163e-11
3.43174e-10
1.63066e-11
3.40464e-10
1.62243e-11
3.37683e-10
1.58575e-11
3.34788e-10
1.51964e-11
3.31735e-10
1.42993e-11
3.28493e-10
1.32468e-11
3.25024e-10
1.21484e-11
3.21299e-10
1.11225e-11
3.17312e-10
1.02942e-11
3.13057e-10
9.83479e-12
3.08541e-10
9.86961e-12
3.0384e-10
1.03969e-11
2.98998e-10
1.13855e-11
2.93979e-10
1.27755e-11
2.88785e-10
1.43941e-11
2.8347e-10
1.60552e-11
2.77996e-10
1.76432e-11
2.72291e-10
1.90284e-11
2.66363e-10
2.01033e-11
2.60214e-10
2.08981e-11
2.53789e-10
2.14762e-11
2.47121e-10
2.18145e-11
2.40304e-10
2.19338e-11
2.33323e-10
2.19708e-11
2.26119e-10
2.2005e-11
2.18756e-10
2.20127e-11
2.1131e-10
2.20363e-11
2.03732e-10
2.21589e-11
1.96012e-10
2.23527e-11
1.8825e-10
2.25768e-11
1.80474e-10
2.28537e-11
1.72622e-10
2.31359e-11
1.64711e-10
2.33295e-11
1.56805e-10
2.33981e-11
1.48878e-10
2.33165e-11
1.40878e-10
2.30427e-11
1.32823e-10
2.25176e-11
1.24748e-10
2.17395e-11
1.16594e-10
2.08405e-11
1.08298e-10
1.99419e-11
9.99116e-11
1.91185e-11
9.15023e-11
1.85078e-11
8.30554e-11
1.82341e-11
7.45639e-11
1.83395e-11
6.60878e-11
1.88096e-11
5.76543e-11
1.96121e-11
4.91927e-11
2.0675e-11
4.06411e-11
2.18496e-11
3.19916e-11
2.29963e-11
2.32067e-11
2.40185e-11
1.42091e-11
2.48641e-11
4.97626e-12
2.552e-11
-4.40185e-12
2.59406e-11
-1.37516e-11
2.60657e-11
-2.28108e-11
2.57789e-11
-3.11657e-11
2.47757e-11
-3.81851e-11
2.24983e-11
-4.29955e-11
1.80989e-11
-4.45498e-11
1.04716e-11
-4.13844e-11
-1.91409e-12
-3.14924e-11
-2.08927e-11
-1.39596e-11
-4.29889e-11
-3.37566e-11
-5.04901e-11
1.58717e-10
-1.12255e-10
1.68779e-10
-1.4541e-10
3.62152e-11
-1.55606e-10
-6.73658e-11
-1.51695e-10
-1.31991e-10
-1.39359e-10
-1.70307e-10
-1.22256e-10
-1.90251e-10
-1.02821e-10
-1.97627e-10
-8.246e-11
-1.95296e-10
-6.19848e-11
-1.8619e-10
-4.14989e-11
-1.71746e-10
-2.13027e-11
-1.5326e-10
-1.25877e-12
-1.32091e-10
1.83497e-11
-1.08468e-10
3.77552e-11
-8.45602e-11
5.687e-11
-5.98267e-11
7.5386e-11
-3.59222e-11
9.38793e-11
-1.30873e-11
1.1161e-10
8.11445e-12
1.28637e-10
2.7355e-11
1.45077e-10
4.38782e-11
1.60965e-10
5.75089e-11
1.76008e-10
6.83365e-11
1.90288e-10
7.61312e-11
2.03791e-10
8.08433e-11
2.16458e-10
8.25801e-11
2.28454e-10
8.12495e-11
2.39567e-10
7.73662e-11
2.49957e-10
7.10197e-11
2.59318e-10
6.28921e-11
2.67884e-10
5.30954e-11
2.75689e-10
4.23084e-11
2.82783e-10
3.09625e-11
2.89241e-10
1.97414e-11
2.95351e-10
8.61089e-12
3.01068e-10
-1.58185e-12
3.06643e-10
-1.12163e-11
3.12098e-10
-1.97101e-11
3.17409e-10
-2.71918e-11
3.2278e-10
-3.37827e-11
3.27834e-10
-3.91143e-11
3.32894e-10
-4.3588e-11
3.37691e-10
-4.68086e-11
3.42348e-10
-4.88914e-11
3.46908e-10
-4.98559e-11
3.51417e-10
-4.96693e-11
3.55903e-10
-4.8522e-11
3.60365e-10
-4.65312e-11
3.64826e-10
-4.39053e-11
3.69301e-10
-4.09097e-11
3.7374e-10
-3.76632e-11
3.7807e-10
-3.44515e-11
3.82177e-10
-3.14325e-11
3.85983e-10
-2.87214e-11
3.89508e-10
-2.64394e-11
3.92732e-10
-2.45323e-11
3.95623e-10
-2.29559e-11
3.98212e-10
-2.17113e-11
4.00474e-10
-2.07084e-11
4.02348e-10
-1.98348e-11
4.0387e-10
-1.90583e-11
4.05111e-10
-1.83207e-11
4.06108e-10
-1.75672e-11
4.06908e-10
-1.67399e-11
4.07548e-10
-1.5765e-11
4.08063e-10
-1.46348e-11
4.08493e-10
-1.32876e-11
4.08882e-10
-1.17178e-11
4.09291e-10
-1.00158e-11
4.0973e-10
-8.26675e-12
4.10205e-10
-6.5795e-12
4.1072e-10
-4.97848e-12
4.11231e-10
-3.50337e-12
4.11722e-10
-2.22836e-12
4.12171e-10
-1.12354e-12
4.12539e-10
-1.84554e-13
4.12803e-10
5.97344e-13
4.12944e-10
1.24432e-12
4.12947e-10
1.81671e-12
4.12775e-10
2.4193e-12
4.12446e-10
3.06535e-12
4.12012e-10
3.79485e-12
4.11443e-10
4.66779e-12
4.10751e-10
5.65777e-12
4.09985e-10
6.75111e-12
4.09145e-10
7.90432e-12
4.08211e-10
9.08101e-12
4.0715e-10
1.02949e-11
4.05967e-10
1.14881e-11
4.04711e-10
1.26134e-11
4.03353e-10
1.36951e-11
4.0185e-10
1.47141e-11
4.00237e-10
1.56407e-11
3.98527e-10
1.64739e-11
3.96699e-10
1.71943e-11
3.94759e-10
1.77775e-11
3.92721e-10
1.82021e-11
3.90573e-10
1.84536e-11
3.88282e-10
1.85162e-11
3.85799e-10
1.83409e-11
3.8308e-10
1.79149e-11
3.80067e-10
1.73124e-11
3.76709e-10
1.66049e-11
3.72997e-10
1.58613e-11
3.689e-10
1.52197e-11
3.6438e-10
1.48133e-11
3.59491e-10
1.47241e-11
3.54316e-10
1.50453e-11
3.4889e-10
1.58235e-11
3.4328e-10
1.69956e-11
3.3757e-10
1.8485e-11
3.31746e-10
2.02197e-11
3.2577e-10
2.2032e-11
3.19687e-10
2.37263e-11
3.13483e-10
2.52314e-11
3.07042e-10
2.65438e-11
3.00329e-10
2.76111e-11
2.93399e-10
2.84065e-11
2.86219e-10
2.89952e-11
2.78723e-10
2.94295e-11
2.70969e-10
2.97245e-11
2.63025e-10
2.99486e-11
2.5486e-10
3.01783e-11
2.46475e-10
3.04222e-11
2.3795e-10
3.06837e-11
2.29311e-10
3.09916e-11
2.20528e-10
3.13574e-11
2.11638e-10
3.1742e-11
2.02712e-10
3.20626e-11
1.93748e-10
3.22939e-11
1.84695e-10
3.24508e-11
1.75556e-10
3.24548e-11
1.66361e-10
3.22382e-11
1.57054e-10
3.18251e-11
1.47566e-10
3.12289e-11
1.37904e-10
3.05022e-11
1.28089e-10
2.97565e-11
1.18104e-10
2.9102e-11
1.07965e-10
2.86452e-11
9.77495e-11
2.84496e-11
8.75217e-11
2.85687e-11
7.72922e-11
2.90404e-11
6.70722e-11
2.98338e-11
5.68824e-11
3.08654e-11
4.67177e-11
3.20139e-11
3.65191e-11
3.31939e-11
2.62129e-11
3.4324e-11
1.57852e-11
3.52916e-11
5.2772e-12
3.60286e-11
-5.24747e-12
3.64665e-11
-1.56309e-11
3.64498e-11
-2.55377e-11
3.56861e-11
-3.44971e-11
3.37347e-11
-4.18745e-11
2.98755e-11
-4.68504e-11
2.30748e-11
-4.82788e-11
1.18997e-11
-4.46449e-11
-5.54857e-12
-3.38711e-11
-3.16661e-11
-1.4974e-11
-6.1885e-11
-4.87305e-11
-5.16319e-11
2.10346e-10
-1.16892e-10
2.34038e-10
-1.54759e-10
7.40786e-11
-1.70378e-10
-5.17451e-11
-1.71961e-10
-1.30406e-10
-1.6527e-10
-1.77001e-10
-1.53664e-10
-2.01856e-10
-1.39687e-10
-2.11608e-10
-1.23731e-10
-2.1125e-10
-1.07204e-10
-2.02714e-10
-8.98951e-11
-1.89059e-10
-7.2128e-11
-1.71027e-10
-5.37411e-11
-1.50475e-10
-3.42817e-11
-1.27925e-10
-1.45112e-11
-1.04328e-10
6.41579e-12
-8.07549e-11
2.76818e-11
-5.71833e-11
4.95481e-11
-3.49519e-11
7.18959e-11
-1.42334e-11
9.47641e-11
4.48861e-12
1.17616e-10
2.10259e-11
1.40188e-10
3.49394e-11
1.62576e-10
4.59496e-11
1.84572e-10
5.41382e-11
2.05965e-10
5.9448e-11
2.26655e-10
6.18923e-11
2.46304e-10
6.15997e-11
2.64835e-10
5.88335e-11
2.82074e-10
5.37827e-11
2.98138e-10
4.68279e-11
3.12751e-10
3.84832e-11
3.26024e-10
2.90356e-11
3.37778e-10
1.92068e-11
3.48579e-10
8.94134e-12
3.57991e-10
-8.00621e-13
3.66724e-10
-1.03129e-11
3.74449e-10
-1.89405e-11
3.81509e-10
-2.67709e-11
3.88041e-10
-3.37242e-11
3.93963e-10
-3.97049e-11
3.9943e-10
-4.458e-11
4.0439e-10
-4.85501e-11
4.08904e-10
-5.13196e-11
4.13105e-10
-5.30938e-11
4.17007e-10
-5.37585e-11
4.20739e-10
-5.34015e-11
4.24362e-10
-5.2146e-11
4.27951e-10
-5.01204e-11
4.31525e-10
-4.74785e-11
4.35083e-10
-4.44682e-11
4.38661e-10
-4.12397e-11
4.42197e-10
-3.79873e-11
4.45616e-10
-3.48514e-11
4.48853e-10
-3.19575e-11
4.51808e-10
-2.93957e-11
4.54419e-10
-2.71412e-11
4.5669e-10
-2.52261e-11
4.58635e-10
-2.36565e-11
4.60245e-10
-2.23173e-11
4.61517e-10
-2.11051e-11
4.62479e-10
-2.00214e-11
4.63164e-10
-1.90039e-11
4.63551e-10
-1.79521e-11
4.63681e-10
-1.68709e-11
4.63648e-10
-1.57301e-11
4.63503e-10
-1.44886e-11
4.63298e-10
-1.30843e-11
4.63089e-10
-1.15081e-11
4.62943e-10
-9.86878e-12
4.62873e-10
-8.19657e-12
4.62836e-10
-6.54418e-12
4.62848e-10
-4.99174e-12
4.62911e-10
-3.56736e-12
4.6299e-10
-2.30792e-12
4.63046e-10
-1.17955e-12
4.63045e-10
-1.83124e-13
4.62979e-10
6.64588e-13
4.628e-10
1.42207e-12
4.62484e-10
2.13073e-12
4.62049e-10
2.85415e-12
4.61479e-10
3.6353e-12
4.60795e-10
4.47792e-12
4.60028e-10
5.43356e-12
4.59186e-10
6.50097e-12
4.58281e-10
7.65644e-12
4.57307e-10
8.87719e-12
4.56274e-10
1.01137e-11
4.552e-10
1.13687e-11
4.54041e-10
1.26463e-11
4.52781e-10
1.38728e-11
4.51461e-10
1.5016e-11
4.50064e-10
1.61113e-11
4.48548e-10
1.7155e-11
4.46922e-10
1.8099e-11
4.45202e-10
1.89144e-11
4.43372e-10
1.96077e-11
4.41389e-10
2.01843e-11
4.39234e-10
2.06088e-11
4.36905e-10
2.08455e-11
4.34342e-10
2.09045e-11
4.31454e-10
2.08019e-11
4.28207e-10
2.05594e-11
4.24563e-10
2.02494e-11
4.20469e-10
1.99549e-11
4.15938e-10
1.97516e-11
4.10988e-10
1.97628e-11
4.05613e-10
2.00994e-11
3.99885e-10
2.07732e-11
3.93927e-10
2.17811e-11
3.87771e-10
2.31516e-11
3.81429e-10
2.4827e-11
3.74987e-10
2.66613e-11
3.68469e-10
2.85494e-11
3.61787e-10
3.04086e-11
3.54904e-10
3.21152e-11
3.47845e-10
3.36033e-11
3.40559e-10
3.48965e-11
3.32973e-10
3.59921e-11
3.251e-10
3.68686e-11
3.16958e-10
3.75724e-11
3.08507e-10
3.81755e-11
2.99744e-10
3.87098e-11
2.90736e-10
3.91857e-11
2.81526e-10
3.9632e-11
2.72112e-10
4.00985e-11
2.62506e-10
4.05975e-11
2.52763e-10
4.11005e-11
2.42908e-10
4.15955e-11
2.32933e-10
4.20376e-11
2.22859e-10
4.23682e-11
2.12705e-10
4.26044e-11
2.02436e-10
4.27226e-11
1.92032e-10
4.26417e-11
1.81488e-10
4.23681e-11
1.70765e-10
4.19518e-11
1.5982e-10
4.14477e-11
1.4865e-10
4.09266e-11
1.37296e-10
4.04567e-11
1.25802e-10
4.01384e-11
1.14194e-10
4.00566e-11
1.02514e-10
4.02479e-11
9.08279e-11
4.07264e-11
7.91782e-11
4.14838e-11
6.75589e-11
4.2485e-11
5.59547e-11
4.36192e-11
4.43706e-11
4.47788e-11
3.27849e-11
4.59099e-11
2.11615e-11
4.69143e-11
9.52849e-12
4.76601e-11
-1.99348e-12
4.79883e-11
-1.31889e-11
4.7646e-11
-2.37598e-11
4.62579e-11
-3.32826e-11
4.32575e-11
-4.11352e-11
3.77278e-11
-4.64717e-11
2.84111e-11
-4.81764e-11
1.36046e-11
-4.47715e-11
-8.95335e-12
-3.40966e-11
-4.23405e-11
-1.509e-11
-8.08907e-11
-6.38208e-11
-5.05998e-11
2.60947e-10
-1.15554e-10
2.98994e-10
-1.54465e-10
1.12988e-10
-1.72208e-10
-3.40033e-11
-1.76758e-10
-1.25854e-10
-1.73288e-10
-1.80472e-10
-1.6468e-10
-2.10464e-10
-1.53079e-10
-2.23208e-10
-1.39979e-10
-2.24352e-10
-1.25409e-10
-2.17283e-10
-1.09837e-10
-2.04629e-10
-9.2882e-11
-1.87983e-10
-7.50073e-11
-1.68351e-10
-5.57897e-11
-1.47143e-10
-3.51721e-11
-1.24944e-10
-1.3381e-11
-1.0255e-10
9.82921e-12
-8.03967e-11
3.42431e-11
-5.93649e-11
5.95376e-11
-3.95285e-11
8.54689e-11
-2.14425e-11
1.1212e-10
-5.6243e-12
1.39183e-10
7.87831e-12
1.66111e-10
1.90187e-11
1.92929e-10
2.73212e-11
2.19163e-10
3.32159e-11
2.4472e-10
3.63331e-11
2.69193e-10
3.71264e-11
2.92627e-10
3.53993e-11
3.14632e-10
3.17762e-11
3.35076e-10
2.63843e-11
3.53843e-10
1.97165e-11
3.7093e-10
1.1946e-11
3.86476e-10
3.6603e-12
4.00317e-10
-4.89916e-12
4.12796e-10
-1.32799e-11
4.23894e-10
-2.14104e-11
4.33757e-10
-2.8802e-11
4.42642e-10
-3.56573e-11
4.50541e-10
-4.1622e-11
4.57462e-10
-4.66267e-11
4.63784e-10
-5.0903e-11
4.69255e-10
-5.40186e-11
4.74212e-10
-5.62773e-11
4.78644e-10
-5.75259e-11
4.82621e-10
-5.77345e-11
4.86355e-10
-5.71365e-11
4.89892e-10
-5.56837e-11
4.93294e-10
-5.35216e-11
4.9663e-10
-5.08149e-11
4.99897e-10
-4.77354e-11
5.03107e-10
-4.44492e-11
5.06216e-10
-4.10973e-11
5.0922e-10
-3.78549e-11
5.12077e-10
-3.48148e-11
5.1469e-10
-3.20072e-11
5.17003e-10
-2.94533e-11
5.18997e-10
-2.72215e-11
5.20619e-10
-2.52774e-11
5.21842e-10
-2.35392e-11
5.22737e-10
-2.20015e-11
5.23333e-10
-2.06175e-11
5.23629e-10
-1.92994e-11
5.23645e-10
-1.79691e-11
5.2344e-10
-1.66661e-11
5.2306e-10
-1.53507e-11
5.22502e-10
-1.39312e-11
5.21857e-10
-1.24399e-11
5.21236e-10
-1.08871e-11
5.20657e-10
-9.28913e-12
5.20116e-10
-7.65577e-12
5.19616e-10
-6.0439e-12
5.19183e-10
-4.55892e-12
5.18798e-10
-3.18248e-12
5.18393e-10
-1.9043e-12
5.17969e-10
-7.56233e-13
5.17518e-10
2.68128e-13
5.1701e-10
1.1724e-12
5.16412e-10
2.01933e-12
5.15682e-10
2.86064e-12
5.14837e-10
3.69985e-12
5.13909e-10
4.56323e-12
5.12895e-10
5.49218e-12
5.11795e-10
6.53367e-12
5.10618e-10
7.67815e-12
5.0941e-10
8.86345e-12
5.0819e-10
1.00975e-11
5.069e-10
1.14056e-11
5.05534e-10
1.27341e-11
5.04149e-10
1.40304e-11
5.0273e-10
1.52914e-11
5.0122e-10
1.65261e-11
4.99602e-10
1.77298e-11
4.97899e-10
1.88579e-11
4.96121e-10
1.98775e-11
4.9422e-10
2.0815e-11
4.9216e-10
2.16675e-11
4.89946e-10
2.23984e-11
4.87546e-10
2.30088e-11
4.84904e-10
2.34871e-11
4.81995e-10
2.38142e-11
4.78758e-10
2.40381e-11
4.75118e-10
2.41999e-11
4.7106e-10
2.43078e-11
4.66569e-10
2.44446e-11
4.61597e-10
2.47238e-11
4.56168e-10
2.5192e-11
4.5037e-10
2.58979e-11
4.4423e-10
2.69144e-11
4.37766e-10
2.82443e-11
4.31082e-10
2.98366e-11
4.24251e-10
3.16588e-11
4.1726e-10
3.36516e-11
4.10112e-10
3.56967e-11
4.02832e-10
3.76887e-11
3.95375e-10
3.95729e-11
3.87663e-10
4.13161e-11
3.79677e-10
4.28815e-11
3.71431e-10
4.42384e-11
3.62897e-10
4.54033e-11
3.54035e-10
4.64347e-11
3.44846e-10
4.73656e-11
3.35354e-10
4.8202e-11
3.25577e-10
4.89612e-11
3.15541e-10
4.9668e-11
3.05271e-10
5.0368e-11
2.94781e-10
5.10871e-11
2.84108e-10
5.17732e-11
2.73308e-10
5.23951e-11
2.62378e-10
5.29671e-11
2.51288e-10
5.34573e-11
2.40056e-10
5.38363e-11
2.28704e-10
5.40749e-11
2.17213e-10
5.41333e-11
2.05533e-10
5.40478e-11
1.93634e-10
5.38487e-11
1.81535e-10
5.35461e-11
1.69236e-10
5.32254e-11
1.56723e-10
5.29703e-11
1.44032e-10
5.28306e-11
1.31241e-10
5.28478e-11
1.18403e-10
5.30864e-11
1.05522e-10
5.36068e-11
9.26317e-11
5.43747e-11
7.97921e-11
5.53241e-11
6.70236e-11
5.6388e-11
5.42959e-11
5.75076e-11
4.15847e-11
5.86221e-11
2.89207e-11
5.9579e-11
1.638e-11
6.02005e-11
4.0726e-12
6.02954e-11
-7.83289e-12
5.95518e-11
-1.90424e-11
5.74683e-11
-2.9087e-11
5.33021e-11
-3.74083e-11
4.60487e-11
-4.32414e-11
3.42442e-11
-4.55192e-11
1.58828e-11
-4.27296e-11
-1.17425e-11
-3.27784e-11
-5.22916e-11
-1.45645e-11
-9.91039e-11
-7.83857e-11
-4.79329e-11
3.08879e-10
-1.09534e-10
3.60595e-10
-1.47224e-10
1.50676e-10
-1.65189e-10
-1.60359e-11
-1.70539e-10
-1.20504e-10
-1.68015e-10
-1.82999e-10
-1.61163e-10
-2.17313e-10
-1.51131e-10
-2.33241e-10
-1.3908e-10
-2.36398e-10
-1.25313e-10
-2.31055e-10
-1.10415e-10
-2.19526e-10
-9.39164e-11
-2.04485e-10
-7.61016e-11
-1.86161e-10
-5.65513e-11
-1.66696e-10
-3.54562e-11
-1.46041e-10
-1.26251e-11
-1.2538e-10
1.17683e-11
-1.0479e-10
3.74059e-11
-8.50022e-11
6.44755e-11
-6.65983e-11
9.27603e-11
-4.97278e-11
1.21622e-10
-3.44869e-11
1.51028e-10
-2.15294e-11
1.80778e-10
-1.07301e-11
2.10292e-10
-2.19316e-12
2.39576e-10
3.93225e-12
2.68123e-10
7.78872e-12
2.95846e-10
9.40349e-12
3.22207e-10
9.03983e-12
3.47224e-10
6.75908e-12
3.70573e-10
3.03625e-12
3.924e-10
-2.10997e-12
4.12276e-10
-7.9288e-12
4.30497e-10
-1.45586e-11
4.46829e-10
-2.12336e-11
4.61684e-10
-2.81348e-11
4.74851e-10
-3.45772e-11
4.86719e-10
-4.06711e-11
4.97216e-10
-4.61521e-11
5.06558e-10
-5.09641e-11
5.14884e-10
-5.49531e-11
5.22185e-10
-5.82045e-11
5.28625e-10
-6.04599e-11
5.34346e-10
-6.19981e-11
5.39396e-10
-6.25752e-11
5.43947e-10
-6.22875e-11
5.48073e-10
-6.12616e-11
5.51881e-10
-5.94938e-11
5.55489e-10
-5.71285e-11
5.58952e-10
-5.42784e-11
5.62274e-10
-5.1057e-11
5.65474e-10
-4.76482e-11
5.68527e-10
-4.41504e-11
5.71395e-10
-4.0723e-11
5.7404e-10
-3.74601e-11
5.76447e-10
-3.44145e-11
5.78594e-10
-3.16014e-11
5.80412e-10
-2.9039e-11
5.81869e-10
-2.67337e-11
5.82959e-10
-2.46294e-11
5.83691e-10
-2.27323e-11
5.84059e-10
-2.09824e-11
5.8411e-10
-1.93518e-11
5.83924e-10
-1.77831e-11
5.83491e-10
-1.62306e-11
5.82844e-10
-1.47043e-11
5.82053e-10
-1.31409e-11
5.81165e-10
-1.15515e-11
5.80227e-10
-9.94976e-12
5.79261e-10
-8.32446e-12
5.78324e-10
-6.71993e-12
5.77442e-10
-5.16148e-12
5.76571e-10
-3.68877e-12
5.75702e-10
-2.31262e-12
5.7482e-10
-1.02272e-12
5.73927e-10
1.36447e-13
5.73008e-10
1.18596e-12
5.72001e-10
2.17904e-12
5.70893e-10
3.12631e-12
5.69714e-10
4.04048e-12
5.68456e-10
4.95818e-12
5.67095e-10
5.92427e-12
5.65625e-10
6.9625e-12
5.64107e-10
8.05155e-12
5.62579e-10
9.20575e-12
5.60997e-10
1.04458e-11
5.59347e-10
1.17473e-11
5.57672e-10
1.30818e-11
5.5598e-10
1.44259e-11
5.54244e-10
1.5766e-11
5.52437e-10