0.0003125 	0.199688 	0.005 	-3.56905
0.0009375 	0.199688 	0.005 	-1.71798
0.0015625 	0.199688 	0.005 	-0.866417
0.0021875 	0.199688 	0.005 	-0.536944
0.0028125 	0.199688 	0.005 	-0.367025
0.0034375 	0.199688 	0.005 	-0.265826
0.0040625 	0.199688 	0.005 	-0.203843
0.0046875 	0.199688 	0.005 	-0.163583
0.0053125 	0.199688 	0.005 	-0.135507
0.0059375 	0.199688 	0.005 	-0.11485
0.0065625 	0.199688 	0.005 	-0.0990522
0.0071875 	0.199688 	0.005 	-0.0866031
0.0078125 	0.199688 	0.005 	-0.076556
0.0084375 	0.199688 	0.005 	-0.0682916
0.0090625 	0.199688 	0.005 	-0.061387
0.0096875 	0.199688 	0.005 	-0.0555437
0.0103125 	0.199688 	0.005 	-0.050545
0.0109375 	0.199688 	0.005 	-0.0462304
0.0115625 	0.199688 	0.005 	-0.0424789
0.0121875 	0.199688 	0.005 	-0.0391976
0.0128125 	0.199688 	0.005 	-0.0363142
0.0134375 	0.199688 	0.005 	-0.0337721
0.0140625 	0.199688 	0.005 	-0.031526
0.0146875 	0.199688 	0.005 	-0.0295395
0.0153125 	0.199688 	0.005 	-0.027783
0.0159375 	0.199688 	0.005 	-0.0262322
0.0165625 	0.199688 	0.005 	-0.0248668
0.0171875 	0.199688 	0.005 	-0.0236701
0.0178125 	0.199688 	0.005 	-0.0226277
0.0184375 	0.199688 	0.005 	-0.0217276
0.0190625 	0.199688 	0.005 	-0.0209594
0.0196875 	0.199688 	0.005 	-0.0203139
0.0203125 	0.199688 	0.005 	-0.0197834
0.0209375 	0.199688 	0.005 	-0.019361
0.0215625 	0.199688 	0.005 	-0.0190404
0.0221875 	0.199688 	0.005 	-0.0188164
0.0228125 	0.199688 	0.005 	-0.0186839
0.0234375 	0.199688 	0.005 	-0.0186385
0.0240625 	0.199688 	0.005 	-0.0186761
0.0246875 	0.199688 	0.005 	-0.0187931
0.0253125 	0.199688 	0.005 	-0.018986
0.0259375 	0.199688 	0.005 	-0.0192517
0.0265625 	0.199688 	0.005 	-0.019587
0.0271875 	0.199688 	0.005 	-0.0199893
0.0278125 	0.199688 	0.005 	-0.0204558
0.0284375 	0.199688 	0.005 	-0.0209841
0.0290625 	0.199688 	0.005 	-0.0215716
0.0296875 	0.199688 	0.005 	-0.022216
0.0303125 	0.199688 	0.005 	-0.0229151
0.0309375 	0.199688 	0.005 	-0.0236666
0.0315625 	0.199688 	0.005 	-0.0244683
0.0321875 	0.199688 	0.005 	-0.0253181
0.0328125 	0.199688 	0.005 	-0.0262139
0.0334375 	0.199688 	0.005 	-0.0271535
0.0340625 	0.199688 	0.005 	-0.0281348
0.0346875 	0.199688 	0.005 	-0.0291556
0.0353125 	0.199688 	0.005 	-0.030214
0.0359375 	0.199688 	0.005 	-0.0313075
0.0365625 	0.199688 	0.005 	-0.0324342
0.0371875 	0.199688 	0.005 	-0.0335917
0.0378125 	0.199688 	0.005 	-0.0347777
0.0384375 	0.199688 	0.005 	-0.03599
0.0390625 	0.199688 	0.005 	-0.0372261
0.0396875 	0.199688 	0.005 	-0.0384837
0.0403125 	0.199688 	0.005 	-0.0397601
0.0409375 	0.199688 	0.005 	-0.0410529
0.0415625 	0.199688 	0.005 	-0.0423594
0.0421875 	0.199688 	0.005 	-0.0436768
0.0428125 	0.199688 	0.005 	-0.0450023
0.0434375 	0.199688 	0.005 	-0.0463331
0.0440625 	0.199688 	0.005 	-0.047666
0.0446875 	0.199688 	0.005 	-0.0489981
0.0453125 	0.199688 	0.005 	-0.0503261
0.0459375 	0.199688 	0.005 	-0.0516468
0.0465625 	0.199688 	0.005 	-0.0529567
0.0471875 	0.199688 	0.005 	-0.0542523
0.0478125 	0.199688 	0.005 	-0.05553
0.0484375 	0.199688 	0.005 	-0.056786
0.0490625 	0.199688 	0.005 	-0.0580166
0.0496875 	0.199688 	0.005 	-0.0592176
0.0503125 	0.199688 	0.005 	-0.0603851
0.0509375 	0.199688 	0.005 	-0.0615148
0.0515625 	0.199688 	0.005 	-0.0626023
0.0521875 	0.199688 	0.005 	-0.0636433
0.0528125 	0.199688 	0.005 	-0.064633
0.0534375 	0.199688 	0.005 	-0.0655668
0.0540625 	0.199688 	0.005 	-0.0664397
0.0546875 	0.199688 	0.005 	-0.0672469
0.0553125 	0.199688 	0.005 	-0.0679832
0.0559375 	0.199688 	0.005 	-0.0686433
0.0565625 	0.199688 	0.005 	-0.0692219
0.0571875 	0.199688 	0.005 	-0.0697135
0.0578125 	0.199688 	0.005 	-0.0701123
0.0584375 	0.199688 	0.005 	-0.0704126
0.0590625 	0.199688 	0.005 	-0.0706085
0.0596875 	0.199688 	0.005 	-0.070694
0.0603125 	0.199688 	0.005 	-0.0706628
0.0609375 	0.199688 	0.005 	-0.0705086
0.0615625 	0.199688 	0.005 	-0.0702249
0.0621875 	0.199688 	0.005 	-0.0698053
0.0628125 	0.199688 	0.005 	-0.0692428
0.0634375 	0.199688 	0.005 	-0.0685307
0.0640625 	0.199688 	0.005 	-0.0676619
0.0646875 	0.199688 	0.005 	-0.0666291
0.0653125 	0.199688 	0.005 	-0.0654252
0.0659375 	0.199688 	0.005 	-0.0640426
0.0665625 	0.199688 	0.005 	-0.0624736
0.0671875 	0.199688 	0.005 	-0.0607105
0.0678125 	0.199688 	0.005 	-0.0587451
0.0684375 	0.199688 	0.005 	-0.0565694
0.0690625 	0.199688 	0.005 	-0.0541748
0.0696875 	0.199688 	0.005 	-0.0515527
0.0703125 	0.199688 	0.005 	-0.0486943
0.0709375 	0.199688 	0.005 	-0.0455904
0.0715625 	0.199688 	0.005 	-0.0422316
0.0721875 	0.199688 	0.005 	-0.038608
0.0728125 	0.199688 	0.005 	-0.0347095
0.0734375 	0.199688 	0.005 	-0.0305255
0.0740625 	0.199688 	0.005 	-0.0260451
0.0746875 	0.199688 	0.005 	-0.0212567
0.0753125 	0.199688 	0.005 	-0.0161482
0.0759375 	0.199688 	0.005 	-0.0107067
0.0765625 	0.199688 	0.005 	-0.00491876
0.0771875 	0.199688 	0.005 	0.00123019
0.0778125 	0.199688 	0.005 	0.00775559
0.0784375 	0.199688 	0.005 	0.0146741
0.0790625 	0.199688 	0.005 	0.0220036
0.0796875 	0.199688 	0.005 	0.0297638
0.0803125 	0.199688 	0.005 	0.0379761
0.0809375 	0.199688 	0.005 	0.0466638
0.0815625 	0.199688 	0.005 	0.0558531
0.0821875 	0.199688 	0.005 	0.0655729
0.0828125 	0.199688 	0.005 	0.0758555
0.0834375 	0.199688 	0.005 	0.0867376
0.0840625 	0.199688 	0.005 	0.0982604
0.0846875 	0.199688 	0.005 	0.110471
0.0853125 	0.199688 	0.005 	0.123425
0.0859375 	0.199688 	0.005 	0.137184
0.0865625 	0.199688 	0.005 	0.151822
0.0871875 	0.199688 	0.005 	0.167427
0.0878125 	0.199688 	0.005 	0.184101
0.0884375 	0.199688 	0.005 	0.201968
0.0890625 	0.199688 	0.005 	0.22118
0.0896875 	0.199688 	0.005 	0.241921
0.0903125 	0.199688 	0.005 	0.264423
0.0909375 	0.199688 	0.005 	0.288977
0.0915625 	0.199688 	0.005 	0.315961
0.0921875 	0.199688 	0.005 	0.345869
0.0928125 	0.199688 	0.005 	0.379367
0.0934375 	0.199688 	0.005 	0.417379
0.0940625 	0.199688 	0.005 	0.461235
0.0946875 	0.199688 	0.005 	0.512937
0.0953125 	0.199688 	0.005 	0.575677
0.0959375 	0.199688 	0.005 	0.654967
0.0965625 	0.199688 	0.005 	0.761279
0.0971875 	0.199688 	0.005 	0.915127
0.0978125 	0.199688 	0.005 	1.1554
0.0984375 	0.199688 	0.005 	1.58281
0.0990625 	0.199688 	0.005 	2.55314
0.0996875 	0.199688 	0.005 	4.52798
