/*--------------------------------*- C++ -*----------------------------------*\
  =========                 |
  \\      /  F ield         | OpenFOAM: The Open Source CFD Toolbox
   \\    /   O peration     | Website:  https://openfoam.org
    \\  /    A nd           | Version:  7
     \\/     M anipulation  |
\*---------------------------------------------------------------------------*/
FoamFile
{
    version     2.0;
    format      ascii;
    class       volScalarField;
    location    "0.0125";
    object      p;
}
// * * * * * * * * * * * * * * * * * * * * * * * * * * * * * * * * * * * * * //

dimensions      [0 2 -2 0 0 0 0];

internalField   nonuniform List<scalar> 
12800
(
8.99249e-08
-0.0432895
-0.103792
-0.110567
-0.0493845
0.0669302
0.223854
0.407906
0.607164
0.813488
1.01906
1.21753
1.40321
1.57491
1.73197
1.87645
2.00987
2.13245
2.2446
2.34829
2.44396
2.533
2.61816
2.69929
2.77767
2.85461
2.92914
3.00125
3.0719
3.14179
3.21069
3.27774
3.34216
3.40286
3.46009
3.51566
3.57093
3.6252
3.67666
3.72461
3.76881
3.80907
3.8461
3.88088
3.9142
3.9461
3.97619
4.00459
4.03129
4.05538
4.07583
4.09251
4.10622
4.11777
4.12755
4.13624
4.14516
4.15528
4.16629
4.17722
4.18744
4.19699
4.20598
4.21419
4.22155
4.2287
4.2368
4.24689
4.25943
4.27435
4.29129
4.30985
4.32943
4.34878
4.36611
4.38006
4.39043
4.39789
4.40306
4.40623
4.40775
4.40862
4.41043
4.41472
4.42225
4.43279
4.44573
4.46064
4.47735
4.49532
4.51342
4.53051
4.54619
4.5609
4.57528
4.58945
4.60288
4.61472
4.62419
4.63079
4.63434
4.63485
4.63224
4.62618
4.61631
4.60282
4.58683
4.56995
4.55352
4.53821
4.52441
4.51293
4.50513
4.50204
4.50353
4.50814
4.51404
4.51994
4.52533
4.52999
4.53335
4.53452
4.53282
4.52833
4.52188
4.51449
4.50678
4.49886
4.49071
4.48256
4.47476
4.46759
4.4611
4.45525
4.45007
4.44578
4.44267
4.4406
4.43882
4.43619
4.43197
4.42648
4.42109
4.4173
4.41561
4.41517
4.41429
4.41163
4.40689
4.40045
4.39294
4.38504
4.37704
4.36852
4.35895
4.34887
4.3403
4.33516
4.33347
4.32924
-0.0534022
-0.0104599
0.00963566
0.0593536
0.149008
0.270586
0.41749
0.581224
0.755823
0.934749
1.11406
1.28761
1.45268
1.60668
1.75043
1.88506
2.01144
2.12906
2.23851
2.33945
2.43347
2.52279
2.6071
2.6881
2.76668
2.84345
2.91876
2.99182
3.06219
3.12997
3.19566
3.25987
3.32263
3.38304
3.44087
3.49683
3.55095
3.60308
3.65286
3.69948
3.74253
3.78199
3.81847
3.85316
3.88673
3.91916
3.95018
3.97979
4.00792
4.03348
4.05542
4.07419
4.09073
4.10514
4.11749
4.1286
4.13971
4.1517
4.1643
4.1764
4.18743
4.19763
4.20688
4.21451
4.22068
4.22674
4.23401
4.24314
4.25436
4.26764
4.28277
4.29952
4.31743
4.33525
4.35116
4.36397
4.3738
4.3814
4.38715
4.39106
4.39353
4.39569
4.39909
4.40491
4.41355
4.4247
4.43788
4.45281
4.46928
4.48658
4.50346
4.51884
4.53256
4.54539
4.5581
4.57072
4.58249
4.59249
4.60014
4.60535
4.6082
4.60869
4.60653
4.60127
4.59273
4.5814
4.56843
4.55506
4.54202
4.52953
4.5179
4.50812
4.50164
4.49932
4.50075
4.50443
4.50877
4.51292
4.51668
4.51988
4.52191
4.52192
4.51941
4.51464
4.50844
4.50163
4.49461
4.48741
4.48005
4.47279
4.46592
4.45958
4.45372
4.44839
4.44382
4.44036
4.43814
4.43674
4.4351
4.43204
4.42707
4.42101
4.41563
4.4125
4.4117
4.41185
4.4111
4.40839
4.40379
4.39798
4.39171
4.38559
4.37944
4.37232
4.36354
4.35358
4.34405
4.3369
4.33218
4.32576
-0.117529
0.00534132
0.0886376
0.183835
0.298406
0.427925
0.570572
0.722369
0.880351
1.04101
1.20046
1.3558
1.50419
1.64436
1.77791
1.90372
2.02334
2.13659
2.24166
2.33996
2.43261
2.52015
2.6038
2.68451
2.76219
2.83805
2.91295
2.98591
3.05645
3.12401
3.1881
3.24978
3.31023
3.36939
3.42683
3.4827
3.53624
3.58672
3.63479
3.68026
3.72218
3.76071
3.79688
3.83176
3.86561
3.8983
3.93012
3.96103
3.99009
4.01629
4.03915
4.05915
4.07714
4.0931
4.10685
4.11948
4.13243
4.14602
4.15964
4.1728
4.18533
4.19699
4.20705
4.21492
4.22106
4.22691
4.23386
4.24247
4.25266
4.26435
4.27776
4.293
4.30942
4.32547
4.33963
4.35135
4.36096
4.36887
4.37504
4.37944
4.38264
4.38584
4.3904
4.39713
4.40612
4.41705
4.4297
4.4441
4.46006
4.47659
4.49223
4.50605
4.51833
4.53017
4.54224
4.55413
4.56473
4.57321
4.57948
4.58388
4.58657
4.58724
4.58533
4.5805
4.57298
4.56353
4.5531
4.54234
4.53144
4.52047
4.51004
4.5014
4.49594
4.49426
4.49569
4.49881
4.5023
4.50552
4.50836
4.51061
4.51167
4.51084
4.50784
4.50302
4.4971
4.49071
4.48416
4.47751
4.47086
4.46434
4.45804
4.45195
4.44611
4.44086
4.43679
4.43434
4.43331
4.43276
4.43124
4.42767
4.42207
4.41579
4.41087
4.40859
4.40852
4.40892
4.4081
4.40539
4.40117
4.39629
4.39149
4.38697
4.38203
4.37553
4.36705
4.35715
4.34746
4.33982
4.33408
4.32754
-0.122147
0.0556445
0.183551
0.309404
0.440734
0.574234
0.710892
0.852783
0.997041
1.14258
1.28683
1.42752
1.56212
1.6922
1.81548
1.93388
2.0468
2.15374
2.25512
2.35015
2.43988
2.52511
2.60735
2.68654
2.76335
2.83803
2.9107
2.98193
3.05156
3.11865
3.18257
3.24352
3.30193
3.35875
3.41476
3.46956
3.52203
3.57145
3.61826
3.66242
3.70311
3.74091
3.77698
3.81182
3.84574
3.87884
3.91124
3.94288
3.97264
3.99926
4.0228
4.04388
4.06259
4.07901
4.09386
4.10816
4.12274
4.13782
4.15295
4.16753
4.18156
4.19487
4.2063
4.21487
4.22145
4.22794
4.23533
4.24344
4.25222
4.26233
4.27435
4.28809
4.30251
4.31628
4.32849
4.33906
4.34835
4.35644
4.36296
4.36776
4.37156
4.37567
4.38119
4.38848
4.39729
4.40745
4.41922
4.43293
4.44819
4.46368
4.47789
4.49028
4.50162
4.51309
4.52493
4.53618
4.54557
4.55265
4.55792
4.56197
4.56474
4.56558
4.56392
4.5598
4.5538
4.54659
4.53863
4.53001
4.52073
4.5111
4.50195
4.49453
4.48997
4.48867
4.49006
4.49288
4.49592
4.49845
4.50032
4.50148
4.50168
4.50046
4.49749
4.4929
4.48722
4.48109
4.47501
4.4692
4.4636
4.45795
4.45198
4.44572
4.43958
4.43436
4.43089
4.42949
4.42954
4.42961
4.42815
4.4244
4.41893
4.4134
4.40954
4.40806
4.40811
4.40812
4.40693
4.40425
4.40056
4.39671
4.39318
4.38973
4.38538
4.37919
4.37097
4.36142
4.35214
4.34448
4.33846
4.33157
-0.0547486
0.148786
0.300271
0.442
0.581019
0.713886
0.844584
0.974567
1.10668
1.23966
1.37116
1.49967
1.62388
1.74358
1.85925
1.97018
2.07625
2.17779
2.2745
2.36634
2.45299
2.5351
2.61447
2.6917
2.76703
2.84024
2.91123
2.98026
3.04742
3.11262
3.17566
3.23624
3.29386
3.34915
3.40356
3.45677
3.50767
3.55604
3.60193
3.64499
3.68476
3.72209
3.75825
3.79323
3.82708
3.86064
3.89381
3.92566
3.95554
3.98284
4.00722
4.02902
4.04849
4.06554
4.08104
4.09663
4.11296
4.12945
4.1457
4.16193
4.178
4.19279
4.20491
4.21422
4.22202
4.22967
4.23744
4.2451
4.253
4.26201
4.27278
4.28505
4.29767
4.30938
4.31973
4.32916
4.33812
4.34621
4.35266
4.35747
4.36167
4.36658
4.37277
4.38006
4.38821
4.39749
4.40854
4.42164
4.43602
4.45012
4.46272
4.47386
4.48461
4.49584
4.50716
4.5173
4.52527
4.53119
4.53584
4.53964
4.54225
4.54305
4.54186
4.53907
4.53518
4.53042
4.5247
4.51794
4.51028
4.50219
4.49447
4.48819
4.48435
4.48343
4.48501
4.48785
4.49056
4.49232
4.49311
4.49331
4.49301
4.49177
4.489
4.48454
4.47891
4.47302
4.46765
4.46298
4.4585
4.45341
4.44731
4.44055
4.43414
4.42927
4.42667
4.42621
4.42684
4.42702
4.42549
4.42196
4.41736
4.41323
4.41073
4.4099
4.40979
4.40923
4.40769
4.40516
4.40206
4.39901
4.3962
4.39306
4.38882
4.38291
4.37522
4.36649
4.35792
4.35057
4.34453
4.33702
0.0703214
0.274915
0.432119
0.577035
0.714771
0.843123
0.965301
1.0854
1.20591
1.32647
1.4481
1.56675
1.68194
1.79345
1.90152
2.00571
2.10626
2.20249
2.29414
2.38256
2.46614
2.54551
2.62179
2.69618
2.76886
2.83997
2.90989
2.9776
3.0426
3.10582
3.16714
3.22625
3.28338
3.33843
3.39176
3.44343
3.49302
3.54056
3.58562
3.62771
3.66726
3.70487
3.74106
3.77629
3.81076
3.84488
3.87872
3.91111
3.941
3.96861
3.99412
4.01683
4.03649
4.05414
4.07109
4.08798
4.10493
4.1222
4.13993
4.15777
4.17499
4.19055
4.20344
4.21367
4.22255
4.23127
4.23981
4.24766
4.25529
4.26396
4.27434
4.28577
4.2969
4.3069
4.31601
4.32485
4.33338
4.34081
4.34657
4.35109
4.35558
4.36088
4.36705
4.37374
4.38107
4.3897
4.40032
4.41275
4.42586
4.43821
4.44919
4.45934
4.46962
4.48025
4.49043
4.49903
4.50566
4.5108
4.51507
4.51855
4.52084
4.52172
4.52141
4.52033
4.5186
4.51602
4.51232
4.50744
4.50153
4.49498
4.48848
4.48312
4.48006
4.47984
4.48189
4.48471
4.48679
4.48757
4.4875
4.48729
4.48696
4.48577
4.48284
4.47809
4.4724
4.46706
4.46284
4.45944
4.45573
4.45062
4.44388
4.43646
4.42997
4.42569
4.42397
4.42415
4.42491
4.42496
4.42354
4.42073
4.41742
4.41475
4.41328
4.41276
4.41241
4.41152
4.40987
4.40764
4.40513
4.40263
4.39998
4.39665
4.39231
4.3867
4.3798
4.37221
4.36454
4.35784
4.35169
4.34361
0.236217
0.426395
0.576282
0.713503
0.84462
0.964413
1.07747
1.18742
1.29697
1.40818
1.51915
1.62929
1.73675
1.8405
1.94161
2.04032
2.13533
2.22638
2.31386
2.39727
2.47722
2.55431
2.6282
2.69964
2.76931
2.83783
2.90569
2.97209
3.036
3.09784
3.1577
3.21536
3.27156
3.3261
3.37857
3.42935
3.47814
3.52475
3.56921
3.61105
3.65066
3.6889
3.72554
3.76092
3.79634
3.83173
3.86579
3.89813
3.92892
3.95757
3.9833
4.00615
4.02664
4.04535
4.06314
4.08079
4.09856
4.11655
4.13495
4.15362
4.1716
4.18744
4.20047
4.21148
4.22182
4.23186
4.241
4.24923
4.25766
4.26734
4.27811
4.28889
4.29883
4.30789
4.31651
4.32484
4.3324
4.3385
4.34315
4.34719
4.35161
4.35671
4.36221
4.36802
4.37474
4.38321
4.39365
4.40532
4.41691
4.42752
4.43717
4.44655
4.45619
4.46582
4.47459
4.48181
4.48748
4.4921
4.49606
4.49937
4.50183
4.50341
4.50436
4.50487
4.50488
4.50414
4.50235
4.4993
4.49488
4.48937
4.48363
4.47908
4.47705
4.4778
4.48027
4.48265
4.48372
4.48357
4.48313
4.48303
4.48284
4.48137
4.4778
4.47252
4.46697
4.46263
4.45984
4.45754
4.45412
4.44854
4.44113
4.43341
4.4272
4.42359
4.42245
4.42275
4.4233
4.42328
4.42239
4.42081
4.41901
4.41758
4.41674
4.41629
4.41581
4.41491
4.4135
4.41173
4.40977
4.40757
4.40485
4.40135
4.39701
4.39174
4.38571
4.37917
4.37253
4.36645
4.36004
4.35135
0.42832
0.593401
0.728018
0.853194
0.97113
1.08052
1.18355
1.2837
1.38417
1.48568
1.58762
1.68923
1.78846
1.88554
1.98055
2.07322
2.1632
2.24969
2.33275
2.41165
2.48776
2.5612
2.63267
2.70194
2.76923
2.8356
2.90104
2.96521
3.02789
3.08877
3.14766
3.20451
3.25983
3.31358
3.36521
3.41528
3.46378
3.50971
3.55359
3.59597
3.63617
3.67441
3.71177
3.74849
3.78453
3.82016
3.85485
3.88772
3.91874
3.94798
3.97454
3.99773
4.01837
4.03793
4.057
4.07531
4.09311
4.11146
4.1308
4.15002
4.16756
4.18274
4.19601
4.20823
4.21986
4.23066
4.24041
4.24973
4.25971
4.27068
4.28187
4.29228
4.30157
4.31011
4.31825
4.32574
4.33188
4.33635
4.33974
4.34314
4.3472
4.35173
4.35645
4.36171
4.36841
4.37715
4.38755
4.39847
4.40878
4.41806
4.42662
4.43505
4.44364
4.4521
4.45971
4.46594
4.47081
4.47483
4.47856
4.48215
4.48543
4.48819
4.49039
4.49222
4.49376
4.49481
4.49484
4.49321
4.48962
4.48459
4.47947
4.47597
4.47514
4.47666
4.47901
4.48056
4.48071
4.48015
4.47986
4.47999
4.47955
4.47728
4.47282
4.46725
4.46237
4.45936
4.45785
4.45615
4.45248
4.44628
4.43855
4.43115
4.42569
4.42274
4.42176
4.42178
4.42202
4.42214
4.42207
4.42182
4.42139
4.42093
4.42056
4.42024
4.41992
4.41943
4.41864
4.41755
4.41612
4.41409
4.41134
4.40788
4.4037
4.39889
4.39365
4.38801
4.38227
4.37643
4.36972
4.36028
0.634239
0.770472
0.884824
0.993152
1.09749
1.19443
1.28642
1.37751
1.46893
1.56139
1.65476
1.74723
1.83897
1.92975
2.01828
2.105
2.18994
2.27204
2.35059
2.42611
2.4988
2.56841
2.63653
2.70351
2.769
2.83358
2.89708
2.95919
3.0202
3.0798
3.13787
3.19448
3.24919
3.30211
3.35339
3.40292
3.4509
3.49702
3.54085
3.58312
3.62419
3.66333
3.70083
3.73815
3.77553
3.81158
3.84572
3.87869
3.91067
3.94036
3.96659
3.98993
4.01168
4.03235
4.05176
4.07012
4.08847
4.10769
4.12737
4.14614
4.16298
4.17791
4.19158
4.20456
4.21698
4.22857
4.23934
4.25003
4.26144
4.27341
4.28491
4.29509
4.30399
4.31213
4.31965
4.32602
4.33065
4.33371
4.33617
4.33901
4.34256
4.34657
4.35101
4.35644
4.36363
4.37274
4.38303
4.39334
4.40272
4.41087
4.41817
4.42529
4.43263
4.43992
4.44643
4.45158
4.45553
4.45907
4.46295
4.46725
4.47147
4.47516
4.47837
4.48154
4.48488
4.48783
4.48928
4.48831
4.48494
4.48032
4.47623
4.47414
4.47439
4.47606
4.47771
4.47835
4.47811
4.47781
4.47795
4.47798
4.4767
4.47323
4.46803
4.46271
4.45896
4.45731
4.45665
4.45497
4.45078
4.44418
4.43665
4.43006
4.42553
4.42302
4.42185
4.4214
4.42147
4.42201
4.42285
4.42367
4.42419
4.42438
4.42444
4.4245
4.42466
4.42492
4.42507
4.42492
4.42415
4.42246
4.4199
4.41663
4.41272
4.40846
4.40385
4.39892
4.39362
4.38764
4.3806
4.37027
0.845176
0.9506
1.04419
1.13433
1.22349
1.30719
1.38934
1.47023
1.55237
1.63601
1.72024
1.8048
1.88943
1.97305
2.05535
2.13658
2.21589
2.29328
2.36819
2.44052
2.50973
2.57667
2.64181
2.70602
2.7694
2.83193
2.8938
2.95446
3.01392
3.0723
3.12951
3.18587
3.24048
3.2926
3.34359
3.39356
3.44105
3.48659
3.53137
3.57456
3.61534
3.65472
3.69363
3.73179
3.76878
3.80457
3.83917
3.87243
3.90398
3.93314
3.95948
3.98342
4.0057
4.02669
4.04643
4.06536
4.08439
4.10406
4.12374
4.14211
4.15856
4.17355
4.18778
4.20155
4.21469
4.22703
4.23892
4.25106
4.2637
4.27618
4.28754
4.29743
4.30613
4.31394
4.32066
4.32581
4.32923
4.33143
4.33337
4.33582
4.33901
4.34283
4.34742
4.35335
4.36113
4.37061
4.38083
4.39052
4.39877
4.40551
4.41145
4.41744
4.42377
4.42988
4.43496
4.43877
4.44198
4.44567
4.45029
4.45538
4.46013
4.46432
4.46853
4.47345
4.47883
4.48336
4.48545
4.48443
4.48108
4.47722
4.47454
4.47382
4.4746
4.47578
4.47645
4.47647
4.47638
4.47663
4.47696
4.47639
4.47389
4.46937
4.46395
4.45943
4.457
4.45638
4.45598
4.45397
4.44944
4.44301
4.43632
4.43085
4.42712
4.42474
4.42315
4.42225
4.42232
4.42338
4.42497
4.4265
4.42755
4.42818
4.42869
4.42933
4.43027
4.43154
4.43288
4.43382
4.43393
4.43292
4.43086
4.4279
4.42439
4.42059
4.41638
4.41173
4.40619
4.3999
4.39225
4.38117
1.05347
1.13002
1.20148
1.27491
1.34866
1.42052
1.49149
1.56287
1.6354
1.70916
1.78489
1.86199
1.93935
2.01608
2.09243
2.16818
2.24249
2.31485
2.38587
2.45493
2.52096
2.58522
2.64816
2.71011
2.77104
2.83114
2.89129
2.95067
3.00866
3.06631
3.12312
3.17843
3.23281
3.28555
3.33603
3.38531
3.43351
3.47976
3.52431
3.56774
3.60967
3.64989
3.68901
3.72737
3.76458
3.80021
3.83436
3.8672
3.8983
3.92687
3.95277
3.9767
3.9993
4.02053
4.04042
4.05974
4.07949
4.09978
4.11944
4.13739
4.15377
4.16943
4.18472
4.19935
4.21306
4.22615
4.23922
4.25262
4.26592
4.27825
4.28903
4.29839
4.30671
4.31401
4.31992
4.3241
4.32668
4.32842
4.33031
4.33293
4.33625
4.34013
4.34487
4.35124
4.3597
4.3697
4.37977
4.38841
4.39505
4.40031
4.40531
4.41073
4.41626
4.42102
4.4245
4.42722
4.4304
4.43489
4.44043
4.44602
4.451
4.45582
4.46154
4.46852
4.47565
4.48092
4.48282
4.48145
4.47842
4.47566
4.47431
4.4743
4.47483
4.47513
4.47502
4.4749
4.47519
4.47573
4.47571
4.47412
4.47053
4.46556
4.46068
4.45736
4.4561
4.45603
4.45547
4.45308
4.44863
4.44303
4.43767
4.43345
4.43037
4.42797
4.42603
4.42492
4.42513
4.42662
4.42869
4.43061
4.43202
4.43302
4.43402
4.43541
4.4374
4.43995
4.44265
4.44482
4.446
4.44593
4.44458
4.44213
4.43907
4.4355
4.43138
4.42639
4.42017
4.41341
4.405
4.39338
1.25333
1.30309
1.3546
1.41193
1.47203
1.53174
1.5924
1.65444
1.71696
1.78167
1.84902
1.91807
1.98824
2.05873
2.12923
2.19954
2.26945
2.33762
2.40424
2.46935
2.53266
2.59414
2.65483
2.71475
2.77348
2.83134
2.88949
2.94773
3.00453
3.06065
3.11724
3.17268
3.22593
3.27809
3.32939
3.37888
3.42655
3.47322
3.51895
3.56296
3.60514
3.64615
3.68622
3.72482
3.76158
3.79678
3.83069
3.86296
3.89298
3.92051
3.946
3.96999
3.99249
4.01342
4.03332
4.05327
4.07383
4.09439
4.11377
4.13157
4.14848
4.16516
4.18142
4.19672
4.21104
4.22493
4.23891
4.25291
4.26613
4.27771
4.28746
4.29594
4.30366
4.31048
4.31582
4.31938
4.32166
4.32373
4.32649
4.33003
4.33387
4.33789
4.34287
4.34991
4.3592
4.36947
4.37874
4.38576
4.39078
4.39509
4.39973
4.40471
4.40917
4.41239
4.41463
4.41706
4.42082
4.42608
4.43196
4.43754
4.44288
4.44901
4.4568
4.46575
4.47386
4.47899
4.48032
4.47889
4.47666
4.47511
4.47458
4.47448
4.4742
4.47362
4.47317
4.47328
4.47389
4.47427
4.47344
4.47081
4.46664
4.46199
4.45822
4.45621
4.45581
4.4559
4.4551
4.45262
4.44871
4.44434
4.44045
4.43736
4.43479
4.43243
4.43049
4.42955
4.43006
4.43186
4.4342
4.43637
4.43809
4.4395
4.44105
4.44332
4.44658
4.45065
4.45486
4.45841
4.4608
4.46179
4.46128
4.45951
4.45678
4.45317
4.44873
4.44298
4.43611
4.42869
4.41987
4.40774
1.44078
1.46707
1.50018
1.54257
1.59108
1.63963
1.69007
1.74229
1.79662
1.85335
1.91216
1.97322
2.0363
2.10059
2.16536
2.23056
2.29551
2.35978
2.42272
2.48404
2.54424
2.60331
2.66178
2.71902
2.77559
2.83255
2.88884
2.94448
3.00063
3.05659
3.11152
3.16588
3.2195
3.27148
3.32193
3.37144
3.41996
3.46717
3.51308
3.55768
3.60097
3.64294
3.68332
3.72184
3.75865
3.79393
3.82739
3.85857
3.88748
3.91451
3.9399
3.96361
3.98557
4.00624
4.02652
4.04712
4.06794
4.0882
4.10723
4.12518
4.14279
4.16033
4.17724
4.19301
4.20788
4.22251
4.23715
4.25123
4.26373
4.27409
4.28273
4.29056
4.29795
4.30443
4.30935
4.31284
4.31585
4.31946
4.32391
4.3286
4.33293
4.33732
4.34305
4.35108
4.36081
4.37034
4.3779
4.38315
4.38716
4.39121
4.39562
4.39971
4.4027
4.4046
4.40638
4.4092
4.4135
4.41878
4.4242
4.42954
4.43564
4.44359
4.45347
4.46375
4.47203
4.47661
4.4776
4.47663
4.47547
4.47488
4.47455
4.47387
4.47268
4.47152
4.47105
4.47143
4.47205
4.47191
4.47027
4.46708
4.46307
4.45939
4.45698
4.45611
4.45624
4.45634
4.45549
4.45336
4.45039
4.44734
4.44473
4.44251
4.44037
4.43823
4.43658
4.43606
4.43695
4.43901
4.44156
4.44397
4.446
4.44783
4.45001
4.45326
4.45788
4.46347
4.46921
4.47422
4.47793
4.48003
4.48048
4.47946
4.47695
4.47314
4.46808
4.46158
4.45412
4.44609
4.4372
4.42468
1.61383
1.61979
1.63664
1.66697
1.70381
1.74283
1.7833
1.8266
1.87356
1.92287
1.97409
2.0277
2.08383
2.14171
2.20064
2.26074
2.32091
2.38042
2.4393
2.49801
2.55548
2.61149
2.66742
2.72316
2.77772
2.83241
2.88777
2.94236
2.99649
3.05133
3.10599
3.1595
3.21206
3.26363
3.31407
3.36356
3.41211
3.45956
3.50601
3.55149
3.59564
3.6381
3.67874
3.71767
3.75493
3.7902
3.82305
3.85348
3.88203
3.90902
3.9343
3.95762
3.97927
4.00009
4.02089
4.04182
4.06236
4.08195
4.10054
4.11871
4.13699
4.15508
4.17222
4.18828
4.20389
4.21955
4.23484
4.24864
4.26011
4.26944
4.27761
4.28537
4.29255
4.2985
4.30313
4.30729
4.31207
4.31778
4.32377
4.32915
4.33391
4.33912
4.34605
4.35478
4.36391
4.37159
4.37706
4.38101
4.38472
4.38875
4.3926
4.39544
4.39713
4.39845
4.40049
4.40382
4.40815
4.41278
4.41746
4.42284
4.43008
4.4398
4.45115
4.46191
4.46984
4.47397
4.47511
4.47491
4.47463
4.47444
4.47381
4.47241
4.4706
4.4692
4.46879
4.46916
4.46942
4.46868
4.4666
4.46358
4.4605
4.45824
4.45725
4.45736
4.4579
4.45812
4.45752
4.45607
4.45413
4.45223
4.45059
4.44906
4.44743
4.44577
4.4446
4.44455
4.44581
4.44814
4.45095
4.45364
4.45597
4.45821
4.46106
4.46526
4.47104
4.47789
4.48494
4.49135
4.49641
4.49973
4.50126
4.50093
4.49864
4.49464
4.48899
4.48204
4.47398
4.46565
4.45664
4.4442
1.77026
1.761
1.76524
1.78307
1.81034
1.84031
1.87234
1.90779
1.94677
1.98915
2.03402
2.08077
2.13013
2.18176
2.23504
2.28939
2.34467
2.40011
2.45487
2.50972
2.56467
2.61886
2.67181
2.72523
2.77922
2.83239
2.88537
2.93904
2.99282
3.04631
3.09953
3.15237
3.20449
3.2555
3.30545
3.35468
3.40319
3.45087
3.49781
3.54385
3.5885
3.63143
3.67265
3.71222
3.74987
3.78508
3.81757
3.84781
3.87652
3.90375
3.929
3.95212
3.97384
3.99519
4.01656
4.03743
4.05721
4.07597
4.09432
4.11283
4.13144
4.14946
4.16655
4.18321
4.2001
4.21699
4.23266
4.24595
4.25673
4.26587
4.27428
4.28206
4.28866
4.29391
4.29866
4.30413
4.31085
4.31814
4.32487
4.33058
4.33602
4.34242
4.35033
4.35887
4.36642
4.37194
4.37575
4.37905
4.38269
4.38642
4.38941
4.39123
4.39239
4.39389
4.3964
4.39981
4.40355
4.40731
4.41157
4.41746
4.42597
4.43698
4.44895
4.45956
4.46705
4.47108
4.47269
4.47323
4.47341
4.47313
4.47199
4.47005
4.46797
4.46658
4.46618
4.4663
4.46608
4.46495
4.46298
4.46078
4.45911
4.45845
4.45886
4.45991
4.46102
4.46168
4.46163
4.46092
4.45984
4.45874
4.45779
4.45693
4.456
4.45508
4.45458
4.45505
4.45674
4.45945
4.46265
4.4657
4.46834
4.471
4.47442
4.47932
4.48582
4.49346
4.50148
4.50909
4.51552
4.52022
4.52287
4.52315
4.52112
4.51697
4.51107
4.50397
4.49554
4.48729
4.47827
4.46637
1.91106
1.8907
1.88439
1.89226
1.91005
1.93183
1.95716
1.98514
2.01651
2.05186
2.09024
2.13096
2.17423
2.21978
2.26745
2.31699
2.36705
2.4175
2.46929
2.52109
2.57208
2.62341
2.67558
2.72769
2.77938
2.83113
2.88349
2.93632
2.98898
3.04129
3.09359
3.14583
3.19734
3.24759
3.29699
3.34604
3.39457
3.44235
3.48952
3.53595
3.58104
3.62449
3.66636
3.70656
3.74449
3.77955
3.81188
3.84235
3.87149
3.89892
3.92409
3.94731
3.96964
3.99179
4.0134
4.03369
4.05259
4.07086
4.08924
4.10777
4.12597
4.14347
4.16066
4.17832
4.19654
4.21423
4.22995
4.2431
4.25416
4.26399
4.27284
4.28036
4.2863
4.29136
4.29687
4.30376
4.31173
4.31962
4.32658
4.33283
4.33935
4.34685
4.35497
4.36247
4.36819
4.37204
4.37496
4.37796
4.38126
4.38426
4.38638
4.38772
4.38904
4.39099
4.39359
4.3964
4.39908
4.40197
4.40609
4.4126
4.42202
4.43362
4.44558
4.45582
4.46306
4.46731
4.46952
4.47062
4.47102
4.47056
4.46911
4.467
4.46498
4.46372
4.46328
4.46314
4.46266
4.46161
4.4603
4.45934
4.45926
4.4602
4.46193
4.464
4.46594
4.46734
4.46799
4.46792
4.4674
4.46683
4.46646
4.46628
4.46616
4.46607
4.46629
4.46739
4.46969
4.47303
4.4768
4.48034
4.48342
4.48645
4.49022
4.49532
4.50198
4.50993
4.51859
4.52718
4.53487
4.54092
4.54462
4.54558
4.5439
4.53976
4.53402
4.52695
4.51879
4.51079
4.5023
4.49117
2.03792
2.00899
1.9949
1.99477
2.00361
2.01839
2.03712
2.05857
2.08318
2.11126
2.14282
2.17754
2.21516
2.25575
2.2978
2.34191
2.38801
2.43445
2.48179
2.53013
2.57885
2.62787
2.67832
2.72935
2.77962
2.83024
2.88209
2.93407
2.98543
3.03683
3.08864
3.14024
3.1909
3.24053
3.28967
3.33864
3.38715
3.43504
3.48243
3.52912
3.57462
3.6187
3.66125
3.7018
3.73964
3.77457
3.8071
3.83795
3.86723
3.89449
3.91969
3.94353
3.96676
3.98934
4.0106
4.0302
4.04872
4.06698
4.08521
4.10306
4.12036
4.13748
4.15519
4.17387
4.19287
4.21085
4.22687
4.24088
4.2533
4.26428
4.27352
4.28078
4.2866
4.29223
4.29883
4.30661
4.31481
4.32258
4.32975
4.3369
4.34459
4.3527
4.36033
4.36644
4.37066
4.37354
4.37605
4.37872
4.38135
4.38342
4.38482
4.38605
4.38768
4.38982
4.392
4.39377
4.39524
4.39729
4.40121
4.40797
4.41767
4.42924
4.44086
4.45074
4.45793
4.46252
4.46525
4.46681
4.46747
4.46714
4.46584
4.46399
4.46227
4.46119
4.46074
4.46052
4.46016
4.45966
4.45941
4.45991
4.46148
4.46401
4.46712
4.47036
4.47331
4.47554
4.47682
4.4772
4.47706
4.47694
4.47719
4.47774
4.47833
4.47889
4.47974
4.4815
4.4846
4.48879
4.49333
4.49753
4.5011
4.50438
4.50804
4.51276
4.51902
4.5269
4.53595
4.54534
4.55408
4.56117
4.56572
4.56745
4.56631
4.56267
4.55739
4.55072
4.54337
4.53581
4.52825
4.51824
2.15237
2.11715
2.09728
2.09011
2.09236
2.10005
2.11215
2.12796
2.14634
2.16725
2.19221
2.22157
2.25366
2.28853
2.32627
2.3656
2.40684
2.44971
2.49334
2.53824
2.58473
2.63255
2.68146
2.7308
2.78022
2.83042
2.88142
2.93215
2.98247
3.03329
3.0846
3.13549
3.18545
3.2347
3.28376
3.33275
3.3813
3.42925
3.47675
3.52375
3.56983
3.61458
3.65751
3.69803
3.73574
3.77077
3.80356
3.83444
3.86338
3.8904
3.91591
3.94049
3.96423
3.98668
4.00745
4.02686
4.04563
4.06408
4.0819
4.09892
4.11563
4.13294
4.15142
4.1708
4.19011
4.20841
4.22535
4.24098
4.25513
4.2672
4.27674
4.28403
4.2902
4.29657
4.30381
4.31161
4.31933
4.3267
4.33414
4.34215
4.35066
4.3589
4.36581
4.37077
4.37402
4.37636
4.37854
4.38071
4.38254
4.3838
4.38474
4.38592
4.38762
4.3895
4.39095
4.39168
4.39217
4.39357
4.39717
4.40379
4.41325
4.42442
4.43557
4.44513
4.45231
4.45717
4.46032
4.46231
4.4634
4.46355
4.46279
4.4615
4.46025
4.45946
4.45917
4.45914
4.45922
4.45955
4.46052
4.46252
4.46571
4.46987
4.47452
4.4791
4.48312
4.4861
4.48782
4.48849
4.48869
4.48912
4.49008
4.49132
4.49242
4.49337
4.4947
4.49715
4.50115
4.50632
4.51178
4.5167
4.52067
4.52384
4.52689
4.53077
4.53631
4.54387
4.5531
4.5631
4.57268
4.58056
4.5859
4.58838
4.588
4.58532
4.58076
4.57509
4.56866
4.56205
4.55539
4.5471
2.25589
2.21687
2.19145
2.17892
2.17551
2.17708
2.18286
2.19194
2.2045
2.22044
2.23931
2.26243
2.29009
2.31994
2.35261
2.38797
2.42497
2.46377
2.50408
2.54675
2.59162
2.63806
2.68544
2.73351
2.78244
2.83212
2.88187
2.93126
2.98093
3.03141
3.08205
3.13204
3.18143
3.23062
3.27977
3.32863
3.37693
3.42477
3.4725
3.51998
3.56657
3.61162
3.6546
3.69509
3.73289
3.768
3.80061
3.831
3.85949
3.88646
3.91231
3.93716
3.96079
3.98295
4.00374
4.02366
4.04307
4.06179
4.07943
4.09627
4.11324
4.1312
4.15029
4.16995
4.1894
4.20821
4.22628
4.24335
4.25866
4.27132
4.28108
4.28863
4.29522
4.30192
4.30901
4.31619
4.3232
4.33031
4.33809
4.34673
4.35566
4.36381
4.37023
4.37465
4.3775
4.37956
4.38134
4.38285
4.38391
4.38455
4.38521
4.38629
4.38775
4.38906
4.38963
4.38944
4.38921
4.39015
4.39346
4.39978
4.40881
4.41939
4.42996
4.43914
4.44624
4.45133
4.4549
4.45745
4.45916
4.45997
4.45992
4.45933
4.45871
4.45846
4.45862
4.45909
4.45983
4.46108
4.46326
4.46672
4.47152
4.47732
4.48352
4.48944
4.49442
4.498
4.50009
4.50111
4.50184
4.50296
4.5046
4.50633
4.50769
4.50885
4.51061
4.5138
4.51877
4.52499
4.53142
4.53699
4.54107
4.54371
4.54583
4.54875
4.5536
4.56081
4.57005
4.58039
4.59053
4.59914
4.60531
4.60858
4.60921
4.60769
4.60421
4.59987
4.59443
4.58917
4.58354
4.57729
2.35028
2.3079
2.27908
2.26206
2.25351
2.24965
2.24913
2.25206
2.25874
2.2697
2.2842
2.30193
2.32423
2.35007
2.37812
2.40942
2.44272
2.4777
2.51562
2.55676
2.60012
2.64481
2.69094
2.73863
2.78702
2.83535
2.88368
2.93243
2.98186
3.03166
3.08119
3.13037
3.17959
3.22878
3.27761
3.32588
3.37374
3.42155
3.46952
3.51724
3.5639
3.60887
3.65179
3.69235
3.73017
3.76497
3.79694
3.82667
3.85483
3.88179
3.90761
3.93215
3.95539
3.97754
3.99894
4.01982
4.04004
4.05922
4.0773
4.09486
4.11278
4.13151
4.15092
4.17055
4.19007
4.20937
4.22824
4.24602
4.26164
4.27434
4.2842
4.29208
4.29902
4.30569
4.31226
4.31871
4.32527
4.33251
4.34084
4.35005
4.35928
4.36741
4.37372
4.3781
4.38101
4.38299
4.38434
4.3851
4.38535
4.3854
4.38575
4.38662
4.38767
4.38826
4.38791
4.38685
4.38596
4.38651
4.38957
4.39557
4.40409
4.41397
4.42382
4.43249
4.43944
4.44477
4.44891
4.45219
4.45468
4.45628
4.45704
4.45729
4.45751
4.45804
4.45892
4.46008
4.46159
4.46381
4.46725
4.47224
4.47869
4.48611
4.49373
4.50072
4.50641
4.51046
4.51303
4.51474
4.51636
4.51831
4.52046
4.52236
4.52373
4.52501
4.52722
4.53122
4.53718
4.54442
4.55169
4.55766
4.56152
4.56342
4.56458
4.56669
4.57102
4.57802
4.58724
4.59766
4.60803
4.61717
4.62408
4.62824
4.63007
4.62977
4.62781
4.62472
4.62064
4.61661
4.61248
4.60821
2.43499
2.39159
2.36094
2.3394
2.3263
2.31788
2.31174
2.30916
2.31095
2.31662
2.32632
2.33998
2.35749
2.37923
2.40343
2.4303
2.46039
2.49288
2.52901
2.56836
2.60981
2.65313
2.6988
2.74608
2.79313
2.83984
2.88748
2.93615
2.98498
3.03351
3.08201
3.13094
3.18012
3.22881
3.27669
3.32416
3.37168
3.41944
3.46725
3.5146
3.56088
3.60563
3.64848
3.68894
3.72641
3.76057
3.79182
3.82107
3.849
3.87574
3.90106
3.92494
3.94781
3.97026
3.99252
4.0144
4.03544
4.05539
4.0745
4.09346
4.11275
4.13235
4.15204
4.17171
4.1914
4.21109
4.23031
4.24806
4.26331
4.2756
4.28537
4.29347
4.30063
4.30719
4.31332
4.31935
4.32591
4.33365
4.34273
4.35257
4.3621
4.37029
4.37662
4.38115
4.3842
4.3861
4.38697
4.38693
4.3863
4.38569
4.38562
4.38615
4.38675
4.38668
4.38559
4.38387
4.38256
4.38289
4.3858
4.39151
4.39947
4.40857
4.41762
4.42574
4.43255
4.43816
4.44288
4.4469
4.45017
4.45259
4.45426
4.45554
4.45683
4.45832
4.46001
4.46188
4.46416
4.46738
4.47216
4.47879
4.48697
4.49591
4.50467
4.51237
4.51848
4.52297
4.52627
4.52905
4.53187
4.53477
4.53734
4.53921
4.54047
4.54184
4.5445
4.54928
4.55618
4.56429
4.57211
4.57812
4.58154
4.58279
4.58334
4.58491
4.58884
4.5956
4.60471
4.61502
4.62535
4.6347
4.64214
4.64726
4.6503
4.65143
4.65118
4.64931
4.6468
4.64391
4.64134
4.63915
2.5113
2.46791
2.43564
2.41122
2.393
2.38034
2.37099
2.36361
2.36036
2.36185
2.36726
2.37677
2.39041
2.4078
2.4287
2.4521
2.47922
2.5101
2.54427
2.58148
2.62137
2.66401
2.70917
2.7551
2.80047
2.84633
2.89385
2.94199
2.98952
3.03687
3.08504
3.13399
3.18265
3.2302
3.27695
3.32381
3.37103
3.4183
3.46531
3.51184
3.55762
3.60219
3.64489
3.68497
3.72183
3.7554
3.78629
3.81539
3.84314
3.86937
3.89389
3.91706
3.93975
3.9626
3.98559
4.0082
4.03002
4.05104
4.07171
4.09248
4.11337
4.134
4.15422
4.1742
4.1942
4.21408
4.23305
4.25005
4.26428
4.27575
4.28511
4.29313
4.30024
4.3066
4.3125
4.31852
4.3255
4.334
4.34386
4.35423
4.36395
4.37213
4.37846
4.38303
4.38605
4.38766
4.38792
4.38705
4.38565
4.38448
4.38405
4.38426
4.38444
4.3839
4.38242
4.38053
4.37932
4.37988
4.38291
4.3884
4.39574
4.404
4.41228
4.41994
4.42669
4.43257
4.43772
4.44223
4.44605
4.44918
4.4518
4.45421
4.45666
4.45915
4.46161
4.46414
4.46721
4.47153
4.47777
4.48604
4.49578
4.50592
4.51537
4.5234
4.52978
4.53479
4.53906
4.54314
4.54725
4.5511
4.55411
4.55604
4.55729
4.55885
4.56194
4.56739
4.57508
4.58384
4.5919
4.59768
4.60065
4.60159
4.60201
4.60347
4.60715
4.61356
4.62227
4.63218
4.64217
4.65141
4.65927
4.66543
4.6697
4.67255
4.67385
4.67351
4.67225
4.6707
4.6693
4.66934
2.58194
2.53648
2.50251
2.47648
2.45464
2.43748
2.42505
2.41493
2.40759
2.40504
2.40703
2.41289
2.42318
2.43678
2.45414
2.4757
2.50066
2.5294
2.56137
2.59691
2.63596
2.67785
2.72148
2.7655
2.80982
2.85552
2.90246
2.94914
2.9953
3.04229
3.0906
3.13908
3.18644
3.23263
3.27864
3.32509
3.37164
3.41778
3.4636
3.50938
3.55488
3.59931
3.64167
3.68124
3.7177
3.75121
3.78233
3.81161
3.83913
3.86474
3.88858
3.91139
3.93416
3.95736
3.9807
4.0037
4.02623
4.04852
4.07092
4.09345
4.11572
4.13728
4.15813
4.17859
4.19883
4.21842
4.23644
4.25199
4.26475
4.27512
4.28383
4.29144
4.2982
4.30431
4.31024
4.31677
4.32464
4.3341
4.34466
4.35531
4.36501
4.37312
4.37942
4.38395
4.38675
4.38781
4.38729
4.38566
4.38375
4.38237
4.38185
4.38187
4.38171
4.38081
4.37921
4.3776
4.37697
4.37816
4.3815
4.38677
4.39342
4.4008
4.40834
4.4156
4.42231
4.42836
4.43375
4.4385
4.44265
4.44636
4.44987
4.45336
4.45685
4.46019
4.46332
4.46653
4.47053
4.4762
4.48403
4.49386
4.50479
4.51559
4.52523
4.53325
4.53981
4.54548
4.55087
4.55629
4.5616
4.56632
4.56987
4.57212
4.57363
4.57552
4.57906
4.58506
4.59329
4.60238
4.61046
4.61606
4.61888
4.61988
4.62055
4.62227
4.62596
4.63201
4.64005
4.64917
4.65845
4.6673
4.67553
4.6827
4.68839
4.69294
4.69568
4.69696
4.6966
4.69628
4.69598
4.698
2.64632
2.59892
2.56315
2.53476
2.51104
2.49063
2.47458
2.46223
2.45241
2.44647
2.44522
2.44797
2.45482
2.4661
2.48081
2.50041
2.52379
2.55015
2.58029
2.61488
2.65303
2.69324
2.7347