/*--------------------------------*- C++ -*----------------------------------*\
  =========                 |
  \\      /  F ield         | OpenFOAM: The Open Source CFD Toolbox
   \\    /   O peration     | Website:  https://openfoam.org
    \\  /    A nd           | Version:  7
     \\/     M anipulation  |
\*---------------------------------------------------------------------------*/
FoamFile
{
    version     2.0;
    format      ascii;
    class       surfaceScalarField;
    location    "0.0125";
    object      phi;
}
// * * * * * * * * * * * * * * * * * * * * * * * * * * * * * * * * * * * * * //

dimensions      [0 3 -1 0 0 0 0];

internalField   nonuniform List<scalar> 
25360
(
4.73051e-10
-4.73087e-10
-5.8963e-09
6.36931e-09
-2.46336e-08
1.87374e-08
-4.95573e-08
2.49237e-08
-7.56974e-08
2.61401e-08
-1.00031e-07
2.43335e-08
-1.21088e-07
2.10567e-08
-1.38168e-07
1.70803e-08
-1.5129e-07
1.31222e-08
-1.60686e-07
9.39624e-09
-1.66831e-07
6.14425e-09
-1.70206e-07
3.37524e-09
-1.71487e-07
1.28087e-09
-1.71063e-07
-4.23381e-10
-1.69494e-07
-1.56904e-09
-1.67024e-07
-2.47068e-09
-1.63984e-07
-3.03973e-09
-1.60562e-07
-3.42233e-09
-1.56907e-07
-3.65473e-09
-1.53194e-07
-3.71285e-09
-1.49493e-07
-3.70129e-09
-1.45887e-07
-3.60542e-09
-1.4242e-07
-3.46698e-09
-1.39102e-07
-3.31848e-09
-1.35923e-07
-3.17836e-09
-1.32916e-07
-3.00702e-09
-1.30028e-07
-2.88845e-09
-1.27192e-07
-2.83612e-09
-1.24427e-07
-2.76535e-09
-1.2166e-07
-2.76655e-09
-1.18848e-07
-2.81231e-09
-1.16038e-07
-2.80963e-09
-1.13274e-07
-2.76412e-09
-1.10598e-07
-2.67571e-09
-1.0801e-07
-2.58818e-09
-1.05494e-07
-2.51652e-09
-1.02991e-07
-2.50239e-09
-1.00448e-07
-2.54349e-09
-9.78772e-08
-2.57059e-09
-9.52966e-08
-2.58052e-09
-9.27158e-08
-2.58077e-09
-9.01428e-08
-2.57307e-09
-8.76101e-08
-2.53262e-09
-8.51709e-08
-2.43924e-09
-8.28313e-08
-2.33953e-09
-8.05956e-08
-2.23579e-09
-7.85145e-08
-2.08109e-09
-7.66245e-08
-1.88994e-09
-7.49271e-08
-1.69744e-09
-7.34475e-08
-1.47966e-09
-7.22623e-08
-1.18514e-09
-7.14578e-08
-8.04501e-10
-7.10959e-08
-3.61828e-10
-7.12188e-08
1.22869e-10
-7.18423e-08
6.23551e-10
-7.29496e-08
1.10735e-09
-7.44871e-08
1.53751e-09
-7.63424e-08
1.85527e-09
-7.83675e-08
2.02514e-09
-8.04522e-08
2.08472e-09
-8.25264e-08
2.07414e-09
-8.45075e-08
1.98116e-09
-8.63232e-08
1.81572e-09
-8.7963e-08
1.63975e-09
-8.94461e-08
1.48307e-09
-9.07684e-08
1.3223e-09
-9.19159e-08
1.14754e-09
-9.28814e-08
9.65554e-10
-9.36355e-08
7.54066e-10
-9.41202e-08
4.84722e-10
-9.42893e-08
1.69123e-10
-9.41236e-08
-1.65711e-10
-9.36097e-08
-5.1396e-10
-9.27455e-08
-8.64219e-10
-9.15753e-08
-1.17009e-09
-9.01911e-08
-1.38416e-09
-8.86908e-08
-1.50035e-09
-8.71515e-08
-1.5393e-09
-8.56402e-08
-1.51125e-09
-8.4226e-08
-1.41422e-09
-8.297e-08
-1.25605e-09
-8.19101e-08
-1.05989e-09
-8.10565e-08
-8.53529e-10
-8.03921e-08
-6.64409e-10
-7.98737e-08
-5.18385e-10
-7.94428e-08
-4.30851e-10
-7.90409e-08
-4.01904e-10
-7.86117e-08
-4.29196e-10
-7.80955e-08
-5.16212e-10
-7.74301e-08
-6.65455e-10
-7.6565e-08
-8.65089e-10
-7.54702e-08
-1.09479e-09
-7.41268e-08
-1.3434e-09
-7.25117e-08
-1.61504e-09
-7.05959e-08
-1.91576e-09
-6.83585e-08
-2.23749e-09
-6.58004e-08
-2.5581e-09
-6.29465e-08
-2.85386e-09
-5.98402e-08
-3.1063e-09
-5.65411e-08
-3.29914e-09
-5.31252e-08
-3.41588e-09
-4.96815e-08
-3.44367e-09
-4.63057e-08
-3.37583e-09
-4.30983e-08
-3.2074e-09
-4.01673e-08
-2.931e-09
-3.76259e-08
-2.54144e-09
-3.55761e-08
-2.04978e-09
-3.40884e-08
-1.48761e-09
-3.31911e-08
-8.97361e-10
-3.28657e-08
-3.25361e-10
-3.3049e-08
1.83345e-10
-3.36296e-08
5.80587e-10
-3.44483e-08
8.18659e-10
-3.53162e-08
8.67921e-10
-3.60512e-08
7.35042e-10
-3.65142e-08
4.62956e-10
-3.66246e-08
1.10466e-10
-3.63535e-08
-2.71172e-10
-3.57064e-08
-6.47038e-10
-3.47178e-08
-9.88634e-10
-3.34502e-08
-1.26759e-09
-3.19887e-08
-1.46142e-09
-3.04248e-08
-1.56394e-09
-2.88356e-08
-1.58928e-09
-2.72703e-08
-1.56523e-09
-2.57572e-08
-1.51314e-09
-2.43178e-08
-1.43944e-09
-2.29768e-08
-1.34105e-09
-2.17552e-08
-1.22155e-09
-2.06584e-08
-1.09683e-09
-1.96727e-08
-9.85738e-10
-1.87746e-08
-8.98107e-10
-1.79416e-08
-8.32932e-10
-1.7158e-08
-7.83659e-10
-1.64128e-08
-7.45177e-10
-1.56936e-08
-7.19221e-10
-1.49826e-08
-7.10987e-10
-1.42638e-08
-7.18848e-10
-1.35321e-08
-7.31679e-10
-1.27957e-08
-7.36372e-10
-1.20686e-08
-7.27148e-10
-1.13549e-08
-7.13611e-10
-1.06381e-08
-7.16881e-10
-9.88528e-09
-7.52777e-10
-9.0621e-09
-8.23178e-10
-8.15202e-09
-9.10087e-10
-7.17694e-09
-9.75077e-10
-6.18624e-09
-9.90694e-10
-5.23037e-09
-9.55852e-10
-4.3582e-09
-8.72159e-10
-3.61612e-09
-7.42064e-10
-3.04717e-09
-5.68937e-10
-2.68885e-09
-3.58309e-10
-2.54855e-09
-1.40305e-10
-2.60039e-09
5.1834e-11
-2.76333e-09
1.62919e-10
-2.82513e-09
6.17963e-11
-2.39765e-09
-4.2749e-10
-1.10471e-09
-1.29295e-09
-1.1047e-09
8.24953e-09
-8.72265e-09
9.57992e-09
5.03894e-09
-6.70934e-09
3.50266e-08
-3.43558e-08
5.25702e-08
-6.64773e-08
5.82616e-08
-9.89099e-08
5.67661e-08
-1.28862e-07
5.10086e-08
-1.55191e-07
4.34099e-08
-1.77169e-07
3.51003e-08
-1.9489e-07
2.71167e-08
-2.08586e-07
1.98399e-08
-2.18833e-07
1.36223e-08
-2.26022e-07
8.47025e-09
-2.30883e-07
4.43796e-09
-2.33706e-07
1.25311e-09
-2.35104e-07
-1.07231e-09
-2.35343e-07
-2.80053e-09
-2.34753e-07
-4.01268e-09
-2.33653e-07
-4.7547e-09
-2.32152e-07
-5.21383e-09
-2.30422e-07
-5.43107e-09
-2.28591e-07
-5.43691e-09
-2.26731e-07
-5.32658e-09
-2.24867e-07
-5.18251e-09
-2.23103e-07
-4.9424e-09
-2.21383e-07
-4.72679e-09
-2.19697e-07
-4.5745e-09
-2.18062e-07
-4.47122e-09
-2.16396e-07
-4.43094e-09
-2.14674e-07
-4.489e-09
-2.12928e-07
-4.55762e-09
-2.11191e-07
-4.54738e-09
-2.09439e-07
-4.51531e-09
-2.07687e-07
-4.42822e-09
-2.05975e-07
-4.30014e-09
-2.04278e-07
-4.21307e-09
-2.0257e-07
-4.21101e-09
-2.00838e-07
-4.27527e-09
-1.99077e-07
-4.33122e-09
-1.97277e-07
-4.38086e-09
-1.95434e-07
-4.42362e-09
-1.93596e-07
-4.41175e-09
-1.91792e-07
-4.33628e-09
-1.90034e-07
-4.1973e-09
-1.88377e-07
-3.99619e-09
-1.86879e-07
-3.73371e-09
-1.85564e-07
-3.39622e-09
-1.84467e-07
-2.98727e-09
-1.83642e-07
-2.52229e-09
-1.8314e-07
-1.9816e-09
-1.8302e-07
-1.30469e-09
-1.83356e-07
-4.69267e-10
-1.84195e-07
4.77732e-10
-1.85572e-07
1.49968e-09
-1.87518e-07
2.5699e-09
-1.90008e-07
3.59721e-09
-1.92939e-07
4.46837e-09
-1.96208e-07
5.12462e-09
-1.99722e-07
5.53904e-09
-2.03337e-07
5.69919e-09
-2.06901e-07
5.63796e-09
-2.10336e-07
5.41629e-09
-2.13599e-07
5.07933e-09
-2.16625e-07
4.66541e-09
-2.19366e-07
4.22408e-09
-2.2183e-07
3.78607e-09
-2.24017e-07
3.33476e-09
-2.25882e-07
2.83044e-09
-2.27379e-07
2.25121e-09
-2.28493e-07
1.59884e-09
-2.29204e-07
8.79631e-10
-2.29471e-07
1.01307e-10
-2.29278e-07
-7.06418e-10
-2.28661e-07
-1.48149e-09
-2.2768e-07
-2.15138e-09
-2.26399e-07
-2.66545e-09
-2.24894e-07
-3.00545e-09
-2.23259e-07
-3.17428e-09
-2.21585e-07
-3.18434e-09
-2.19945e-07
-3.05443e-09
-2.1839e-07
-2.81103e-09
-2.1696e-07
-2.49057e-09
-2.15672e-07
-2.14076e-09
-2.14521e-07
-1.81603e-09
-2.13474e-07
-1.56515e-09
-2.12486e-07
-1.41901e-09
-2.11496e-07
-1.39136e-09
-2.10435e-07
-1.49048e-09
-2.09229e-07
-1.72261e-09
-2.07811e-07
-2.08274e-09
-2.06128e-07
-2.54875e-09
-2.04126e-07
-3.09619e-09
-2.01758e-07
-3.7114e-09
-1.98984e-07
-4.38975e-09
-1.95781e-07
-5.11809e-09
-1.92152e-07
-5.86739e-09
-1.88112e-07
-6.59768e-09
-1.83696e-07
-7.2695e-09
-1.78955e-07
-7.84769e-09
-1.73958e-07
-8.29576e-09
-1.68798e-07
-8.57611e-09
-1.63584e-07
-8.65739e-09
-1.58439e-07
-8.52108e-09
-1.53488e-07
-8.15866e-09
-1.48851e-07
-7.56836e-09
-1.44637e-07
-6.7546e-09
-1.40943e-07
-5.74413e-09
-1.37841e-07
-4.58929e-09
-1.35369e-07
-3.36959e-09
-1.3351e-07
-2.18433e-09
-1.32184e-07
-1.14277e-09
-1.31252e-07
-3.51908e-10
-1.30536e-07
1.03556e-10
-1.29854e-07
1.85286e-10
-1.29033e-07
-8.59079e-11
-1.2793e-07
-6.40186e-10
-1.26434e-07
-1.38488e-09
-1.24478e-07
-2.2272e-09
-1.22043e-07
-3.08192e-09
-1.19161e-07
-3.8708e-09
-1.159e-07
-4.52893e-09
-1.12343e-07
-5.01882e-09
-1.08568e-07
-5.33891e-09
-1.0464e-07
-5.51653e-09
-1.00617e-07
-5.58823e-09
-9.65511e-08
-5.57944e-09
-9.24915e-08
-5.49904e-09
-8.84806e-08
-5.35193e-09
-8.45449e-08
-5.15726e-09
-8.06917e-08
-4.95006e-09
-7.6915e-08
-4.76244e-09
-7.32055e-08
-4.60763e-09
-6.95544e-08
-4.48402e-09
-6.59513e-08
-4.38678e-09
-6.23835e-08
-4.31303e-09
-5.88397e-08
-4.26299e-09
-5.53145e-08
-4.23618e-09
-5.18108e-08
-4.22256e-09
-4.83383e-08
-4.20424e-09
-4.4906e-08
-4.16866e-09
-4.15174e-08
-4.11576e-09
-3.81705e-08
-4.06042e-09
-3.48607e-08
-4.02671e-09
-3.15877e-08
-4.0258e-09
-2.83652e-08
-4.04559e-09
-2.52215e-08
-4.05387e-09
-2.21946e-08
-4.00195e-09
-1.93273e-08
-3.85798e-09
-1.66603e-08
-3.62285e-09
-1.42395e-08
-3.29292e-09
-1.21209e-08
-2.86075e-09
-1.03524e-08
-2.33737e-09
-8.95575e-09
-1.75498e-09
-7.91323e-09
-1.18282e-09
-7.14282e-09
-7.18575e-10
-6.46327e-09
-5.16629e-10
-5.5912e-09
-8.10283e-10
-4.12347e-09
-1.89523e-09
-1.79541e-09
-3.621e-09
-2.90012e-09
2.04502e-08
-2.91728e-08
3.87384e-08
-1.32492e-08
3.91565e-08
3.46085e-08
2.69779e-08
6.47488e-08
7.91147e-09
7.73279e-08
-1.43092e-08
7.89868e-08
-3.7387e-08
7.40863e-08
-5.97279e-08
6.57508e-08
-8.05166e-08
5.5889e-08
-9.94003e-08
4.60003e-08
-1.16105e-07
3.65448e-08
-1.30772e-07
2.82889e-08
-1.43443e-07
2.11415e-08
-1.54367e-07
1.53625e-08
-1.63787e-07
1.06722e-08
-1.71938e-07
7.07923e-09
-1.79009e-07
4.27057e-09
-1.8527e-07
2.24826e-09
-1.90792e-07
7.66941e-10
-1.95779e-07
-2.26569e-10
-2.00387e-07
-8.22498e-10
-2.04585e-07
-1.23925e-09
-2.08541e-07
-1.37114e-09
-2.1229e-07
-1.43299e-09
-2.15832e-07
-1.40011e-09
-2.19228e-07
-1.3316e-09
-2.22494e-07
-1.30771e-09
-2.25643e-07
-1.32311e-09
-2.28657e-07
-1.41641e-09
-2.31573e-07
-1.57287e-09
-2.34384e-07
-1.747e-09
-2.37064e-07
-1.86739e-09
-2.39648e-07
-1.93148e-09
-2.42124e-07
-1.95219e-09
-2.44489e-07
-1.93511e-09
-2.46741e-07
-1.96119e-09
-2.48901e-07
-2.05105e-09
-2.50989e-07
-2.18713e-09
-2.52978e-07
-2.34154e-09
-2.54888e-07
-2.471e-09
-2.56731e-07
-2.58092e-09
-2.58501e-07
-2.64198e-09
-2.60234e-07
-2.60335e-09
-2.6195e-07
-2.48129e-09
-2.63659e-07
-2.2868e-09
-2.65403e-07
-1.98976e-09
-2.67212e-07
-1.58777e-09
-2.69099e-07
-1.09962e-09
-2.71104e-07
-5.1765e-10
-2.73272e-07
1.86868e-10
-2.75616e-07
1.03865e-09
-2.78136e-07
2.05101e-09
-2.80869e-07
3.21077e-09
-2.83826e-07
4.45651e-09
-2.8696e-07
5.70468e-09
-2.90252e-07
6.88882e-09
-2.93709e-07
7.92545e-09
-2.97281e-07
8.69664e-09
-3.00885e-07
9.14337e-09
-3.04495e-07
9.30897e-09
-3.08095e-07
9.23774e-09
-3.11609e-07
8.93008e-09
-3.14959e-07
8.42984e-09
-3.18133e-07
7.8392e-09
-3.21125e-07
7.21584e-09
-3.23883e-07
6.54444e-09
-3.26359e-07
5.8108e-09
-3.28552e-07
5.02317e-09
-3.30469e-07
4.16876e-09
-3.3209e-07
3.21961e-09
-3.33391e-07
2.18075e-09
-3.34382e-07
1.09248e-09
-3.35088e-07
-8.74469e-13
-3.35519e-07
-1.0502e-09
-3.35684e-07
-1.9861e-09
-3.3561e-07
-2.7402e-09
-3.35333e-07
-3.28218e-09
-3.34887e-07
-3.62024e-09
-3.34299e-07
-3.77207e-09
-3.33601e-07
-3.75279e-09
-3.32823e-07
-3.58931e-09
-3.31982e-07
-3.33133e-09
-3.31081e-07
-3.0416e-09
-3.30117e-07
-2.77954e-09
-3.29089e-07
-2.5941e-09
-3.27984e-07
-2.5234e-09
-3.26781e-07
-2.59455e-09
-3.25447e-07
-2.82414e-09
-3.23952e-07
-3.21814e-09
-3.22265e-07
-3.76957e-09
-3.20355e-07
-4.45843e-09
-3.18191e-07
-5.26055e-09
-3.15746e-07
-6.15639e-09
-3.13006e-07
-7.12986e-09
-3.09966e-07
-8.15756e-09
-3.06632e-07
-9.20136e-09
-3.03018e-07
-1.0212e-08
-2.99148e-07
-1.11396e-08
-2.95055e-07
-1.19407e-08
-2.90779e-07
-1.25717e-08
-2.86366e-07
-1.29895e-08
-2.81868e-07
-1.31552e-08
-2.77344e-07
-1.30446e-08
-2.72856e-07
-1.26475e-08
-2.68455e-07
-1.19692e-08
-2.64183e-07
-1.10265e-08
-2.60071e-07
-9.85616e-09
-2.56137e-07
-8.52317e-09
-2.52383e-07
-7.12391e-09
-2.48788e-07
-5.77928e-09
-2.45311e-07
-4.61962e-09
-2.41897e-07
-3.76528e-09
-2.38489e-07
-3.30518e-09
-2.35025e-07
-3.27814e-09
-2.31446e-07
-3.66542e-09
-2.27687e-07
-4.39936e-09
-2.23689e-07
-5.38263e-09
-2.19409e-07
-6.50708e-09
-2.14825e-07
-7.66594e-09
-2.09933e-07
-8.76298e-09
-2.04738e-07
-9.72345e-09
-1.99252e-07
-1.05049e-08
-1.93491e-07
-1.10998e-08
-1.87482e-07
-1.15263e-08
-1.81259e-07
-1.1811e-08
-1.74863e-07
-1.1975e-08
-1.68331e-07
-1.20315e-08
-1.61688e-07
-1.19953e-08
-1.54952e-07
-1.18927e-08
-1.48142e-07
-1.17603e-08
-1.41275e-07
-1.16294e-08
-1.34368e-07
-1.15142e-08
-1.27437e-07
-1.14155e-08
-1.20493e-07
-1.13313e-08
-1.13545e-07
-1.12608e-08
-1.06605e-07
-1.12029e-08
-9.96892e-08
-1.11518e-08
-9.28185e-08
-1.10932e-08
-8.60135e-08
-1.10092e-08
-7.92923e-08
-1.08899e-08
-7.26733e-08
-1.07347e-08
-6.6182e-08
-1.05517e-08
-5.98535e-08
-1.03553e-08
-5.37312e-08
-1.01481e-08
-4.78628e-08
-9.91394e-09
-4.22946e-08
-9.62207e-09
-3.7066e-08
-9.23059e-09
-3.22098e-08
-8.71409e-09
-2.77594e-08
-8.07331e-09
-2.37464e-08
-7.30587e-09
-2.01916e-08
-6.41556e-09
-1.70948e-08
-5.43422e-09
-1.44297e-08
-4.42006e-09
-1.21471e-08
-3.46544e-09
-1.01461e-08
-2.71955e-09
-8.2697e-09
-2.39305e-09
-6.35404e-09
-2.72594e-09
-4.1566e-09
-4.09267e-09
-1.63835e-09
-6.13924e-09
-4.53847e-09
2.62097e-08
-5.53826e-08
5.49456e-08
-4.19851e-08
6.67333e-08
2.28207e-08
6.57786e-08
6.57036e-08
5.6937e-08
8.61695e-08
4.33605e-08
9.25634e-08
2.69849e-08
9.04618e-08
9.21836e-09
8.35174e-08
-9.16551e-09
7.42728e-08
-2.72354e-08
6.40702e-08
-4.4971e-08
5.42804e-08
-6.18226e-08
4.51405e-08
-7.78838e-08
3.72026e-08
-9.2957e-08
3.04357e-08
-1.07127e-07
2.48426e-08
-1.20378e-07
2.03301e-08
-1.3289e-07
1.67821e-08
-1.44637e-07
1.39948e-08
-1.55749e-07
1.18794e-08
-1.66333e-07
1.03575e-08
-1.76346e-07
9.19024e-09
-1.85999e-07
8.41367e-09
-1.95217e-07
7.84764e-09
-2.04091e-07
7.44071e-09
-2.1264e-07
7.14836e-09
-2.20868e-07
6.89684e-09
-2.28819e-07
6.64347e-09
-2.36527e-07
6.38465e-09
-2.44015e-07
6.07161e-09
-2.51319e-07
5.7312e-09
-2.58459e-07
5.39261e-09
-2.65388e-07
5.06244e-09
-2.72097e-07
4.77684e-09
-2.78579e-07
4.53041e-09
-2.84833e-07
4.31876e-09
-2.90881e-07
4.08682e-09
-2.96741e-07
3.80869e-09
-3.02453e-07
3.52444e-09
-3.08011e-07
3.21707e-09
-3.13393e-07
2.91042e-09
-3.18637e-07
2.66388e-09
-3.23761e-07
2.48143e-09
-3.28744e-07
2.38026e-09
-3.33606e-07
2.38014e-09
-3.38365e-07
2.47279e-09
-3.43029e-07
2.67412e-09
-3.47618e-07
3.0013e-09
-3.52156e-07
3.43799e-09
-3.56644e-07
3.97057e-09
-3.61091e-07
4.63403e-09
-3.65528e-07
5.47538e-09
-3.69943e-07
6.46587e-09
-3.74274e-07
7.54136e-09
-3.78512e-07
8.69502e-09
-3.82704e-07
9.89625e-09
-3.86824e-07
1.10089e-08
-3.90808e-07
1.19096e-08
-3.94682e-07
1.25707e-08
-3.98511e-07
1.29724e-08
-4.02272e-07
1.30699e-08
-4.05907e-07
1.28727e-08
-4.09429e-07
1.2452e-08
-4.12864e-07
1.18654e-08
-4.16167e-07
1.11422e-08
-4.19274e-07
1.03222e-08
-4.22175e-07
9.44567e-09
-4.24878e-07
8.51433e-09
-4.27356e-07
7.50073e-09
-4.29581e-07
6.39416e-09
-4.31574e-07
5.21197e-09
-4.33365e-07
3.97236e-09
-4.34959e-07
2.6862e-09
-4.36345e-07
1.38505e-09
-4.37533e-07
1.37644e-10
-4.38541e-07
-9.77556e-10
-4.3937e-07
-1.91138e-09
-4.40003e-07
-2.64985e-09
-4.4043e-07
-3.19286e-09
-4.40659e-07
-3.54265e-09
-4.40699e-07
-3.713e-09
-4.40549e-07
-3.73933e-09
-4.40206e-07
-3.67474e-09
-4.39669e-07
-3.57789e-09
-4.38945e-07
-3.50387e-09
-4.38039e-07
-3.50037e-09
-4.36956e-07
-3.60613e-09
-4.357e-07
-3.85085e-09
-4.34268e-07
-4.25561e-09
-4.32656e-07
-4.83072e-09
-4.30854e-07
-5.57126e-09
-4.28855e-07
-6.45711e-09
-4.26653e-07
-7.46295e-09
-4.24242e-07
-8.56778e-09
-4.21619e-07
-9.75279e-09
-4.18786e-07
-1.09902e-08
-4.1575e-07
-1.22371e-08
-4.12521e-07
-1.3441e-08
-4.0911e-07
-1.45507e-08
-4.05531e-07
-1.55202e-08
-4.01796e-07
-1.63062e-08
-3.97919e-07
-1.68666e-08
-3.93909e-07
-1.7165e-08
-3.89776e-07
-1.71784e-08
-3.85524e-07
-1.68987e-08
-3.8116e-07
-1.63332e-08
-3.76682e-07
-1.55051e-08
-3.72078e-07
-1.44595e-08
-3.67333e-07
-1.32688e-08
-3.62425e-07
-1.20318e-08
-3.57339e-07
-1.08649e-08
-3.52069e-07
-9.88994e-09
-3.46616e-07
-9.21757e-09
-3.40991e-07
-8.93035e-09
-3.35202e-07
-9.06688e-09
-3.29253e-07
-9.61473e-09
-3.23137e-07
-1.05157e-08
-3.16839e-07
-1.16803e-08
-3.10342e-07
-1.30044e-08
-3.03624e-07
-1.43836e-08
-2.96663e-07
-1.57247e-08
-2.89431e-07
-1.69552e-08
-2.81906e-07
-1.803e-08
-2.74074e-07
-1.89318e-08
-2.65936e-07
-1.96643e-08
-2.57506e-07
-2.02409e-08
-2.48805e-07
-2.06754e-08
-2.39856e-07
-2.09814e-08
-2.30674e-07
-2.11771e-08
-2.21278e-07
-2.12883e-08
-2.11693e-07
-2.13455e-08
-2.01948e-07
-2.13741e-08
-1.92076e-07
-2.13869e-08
-1.82105e-07
-2.13859e-08
-1.72066e-07
-2.13707e-08
-1.61986e-07
-2.13408e-08
-1.51897e-07
-2.1292e-08
-1.41833e-07
-2.12151e-08
-1.31832e-07
-2.10952e-08
-1.21926e-07
-2.09143e-08
-1.12155e-07
-2.06614e-08
-1.02557e-07
-2.03329e-08
-9.31798e-08
-1.99286e-08
-8.40802e-08
-1.94548e-08
-7.53171e-08
-1.89112e-08
-6.69533e-08
-1.82778e-08
-5.90482e-08
-1.75272e-08
-5.16471e-08
-1.66316e-08
-4.47872e-08
-1.5574e-08
-3.85e-08
-1.43605e-08
-3.2806e-08
-1.29999e-08
-2.77083e-08
-1.15133e-08
-2.31833e-08
-9.95914e-09
-1.91897e-08
-8.41365e-09
-1.56642e-08
-6.99101e-09
-1.25084e-08
-5.87533e-09
-9.62875e-09
-5.2727e-09
-6.88879e-09
-5.46591e-09
-4.17526e-09
-6.8062e-09
-1.53134e-09
-8.78315e-09
-6.06981e-09
2.68988e-08
-8.22813e-08
5.9095e-08
-7.41813e-08
7.65471e-08
5.36855e-09
8.20991e-08
6.01515e-08
7.96638e-08
8.86048e-08
7.17548e-08
1.00472e-07
6.00758e-08
1.02141e-07
4.58232e-08
9.77701e-08
2.9902e-08
9.0194e-08
1.2749e-08
8.12232e-08
-4.89947e-09
7.19288e-08
-2.27876e-08
6.30286e-08
-4.0667e-08
5.5082e-08
-5.82254e-08
4.79941e-08
-7.54673e-08
4.20845e-08
-9.22638e-08
3.71266e-08
-1.08535e-07
3.30529e-08
-1.24343e-07
2.98033e-08
-1.39657e-07
2.71939e-08
-1.54464e-07
2.51641e-08
-1.6881e-07
2.35361e-08
-1.82711e-07
2.23146e-08
-1.96169e-07
2.13057e-08
-2.09249e-07
2.05206e-08
-2.2194e-07
1.98399e-08
-2.3426e-07
1.92166e-08
-2.46239e-07
1.86223e-08
-2.5788e-07
1.80256e-08
-2.69209e-07
1.74007e-08
-2.80253e-07
1.67755e-08
-2.91035e-07
1.61745e-08
-3.01544e-07
1.55716e-08
-3.11775e-07
1.50072e-08
-3.21711e-07
1.44662e-08
-3.31321e-07
1.39288e-08
-3.40643e-07
1.34093e-08
-3.49701e-07
1.28666e-08
-3.58494e-07
1.23176e-08
-3.67058e-07
1.17812e-08
-3.75393e-07
1.12449e-08
-3.83496e-07
1.07666e-08
-3.91391e-07
1.03766e-08
-3.99066e-07
1.00555e-08
-4.06508e-07
9.82242e-09
-4.13752e-07
9.71655e-09
-4.20815e-07
9.73711e-09
-4.27663e-07
9.84888e-09
-4.3429e-07
1.00649e-08
-4.40758e-07
1.04393e-08
-4.47082e-07
1.09581e-08
-4.53185e-07
1.1578e-08
-4.59043e-07
1.23243e-08
-4.64709e-07
1.32071e-08
-4.70155e-07
1.41407e-08
-4.75295e-07
1.5037e-08
-4.8015e-07
1.58632e-08
-4.84798e-07
1.65585e-08
-4.89243e-07
1.70154e-08
-4.93456e-07
1.71852e-08
-4.97489e-07
1.71031e-08
-5.01409e-07
1.67927e-08
-5.05198e-07
1.62405e-08
-5.08811e-07
1.54787e-08
-5.12263e-07
1.45945e-08
-5.15579e-07
1.36382e-08
-5.18726e-07
1.25919e-08
-5.21651e-07
1.144e-08
-5.24358e-07
1.02071e-08
-5.26881e-07
8.91735e-09
-5.29234e-07
7.56494e-09
-5.31405e-07
6.14388e-09
-5.334e-07
4.6807e-09
-5.35243e-07
3.22799e-09
-5.36947e-07
1.84231e-09
-5.38498e-07
5.73208e-10
-5.39868e-07
-5.41109e-10
-5.4104e-07
-1.47831e-09
-5.42001e-07
-2.23187e-09
-5.42737e-07
-2.80656e-09
-5.43232e-07
-3.21784e-09
-5.43475e-07
-3.4967e-09
-5.43459e-07
-3.69081e-09
-5.43181e-07
-3.85541e-09
-5.42644e-07
-4.04065e-09
-5.41858e-07
-4.28646e-09
-5.40838e-07
-4.62655e-09
-5.39597e-07
-5.09203e-09
-5.38144e-07
-5.70833e-09
-5.36487e-07
-6.48721e-09
-5.34635e-07
-7.42343e-09
-5.32595e-07
-8.49781e-09
-5.3037e-07
-9.68793e-09
-5.27963e-07
-1.09743e-08
-5.25379e-07
-1.23368e-08
-5.22623e-07
-1.37458e-08
-5.19701e-07
-1.51591e-08
-5.16615e-07
-1.65271e-08
-5.13366e-07
-1.78004e-08
-5.09951e-07
-1.89346e-08
-5.06368e-07
-1.98892e-08
-5.02607e-07
-2.06279e-08
-4.98652e-07
-2.11203e-08
-4.94483e-07
-2.13466e-08
-4.90082e-07
-2.13003e-08
-4.85425e-07
-2.09903e-08
-4.80485e-07
-2.04447e-08
-4.75231e-07
-1.97135e-08
-4.69631e-07
-1.88688e-08
-4.63662e-07
-1.80009e-08
-4.57316e-07
-1.72111e-08
-4.50602e-07
-1.6604e-08
-4.43544e-07
-1.62751e-08
-4.36178e-07
-1.62969e-08
-4.2854e-07
-1.67046e-08
-4.20664e-07
-1.74903e-08
-4.12574e-07
-1.86061e-08
-4.04279e-07
-1.99754e-08
-3.95776e-07
-2.15075e-08
-3.87048e-07
-2.31109e-08
-3.7807e-07
-2.47032e-08
-3.68807e-07
-2.62178e-08
-3.59229e-07
-2.76077e-08
-3.49314e-07
-2.88469e-08
-3.39051e-07
-2.99272e-08
-3.28441e-07
-3.08512e-08
-3.17491e-07
-3.16251e-08
-3.06214e-07
-3.22591e-08
-2.94621e-07
-3.27694e-08
-2.82733e-07
-3.31764e-08
-2.70578e-07
-3.35003e-08
-2.58195e-07
-3.37579e-08
-2.45623e-07
-3.39589e-08
-2.32903e-07
-3.41053e-08
-2.20077e-07
-3.41972e-08
-2.07183e-07
-3.42341e-08
-1.94266e-07
-3.42092e-08
-1.81372e-07
-3.41092e-08
-1.6855e-07
-3.39169e-08
-1.55852e-07
-3.36127e-08
-1.43331e-07
-3.31822e-08
-1.31045e-07
-3.26191e-08
-1.19056e-07
-3.19177e-08
-1.07433e-07
-3.10777e-08
-9.62461e-08
-3.00979e-08
-8.55661e-08
-2.89578e-08
-7.54587e-08
-2.76346e-08
-6.59748e-08
-2.61155e-08
-5.71562e-08
-2.43926e-08
-4.90376e-08
-2.24791e-08
-4.16368e-08
-2.04007e-08
-3.49509e-08
-1.81992e-08
-2.8961e-08
-1.59491e-08
-2.36313e-08
-1.37434e-08
-1.8897e-08
-1.17252e-08
-1.46885e-08
-1.00839e-08
-1.09222e-08
-9.03902e-09
-7.4937e-09
-8.89438e-09
-4.3524e-09
-9.9475e-09
-1.51301e-09
-1.16225e-08
-7.58283e-09
2.44557e-08
-1.06737e-07
5.59221e-08
-1.05648e-07
7.53484e-08
-1.40577e-08
8.42531e-08
5.12468e-08
8.56834e-08
8.71745e-08
8.15649e-08
1.04591e-07
7.32531e-08
1.10453e-07
6.16346e-08
1.09389e-07
4.75897e-08
1.04239e-07
3.17059e-08
9.7107e-08
1.44828e-08
8.91519e-08
-3.7713e-09
8.12828e-08
-2.25049e-08
7.38155e-08
-4.16773e-08
6.71666e-08
-6.08886e-08
6.12959e-08
-8.00452e-08
5.62832e-08
-9.90765e-08
5.20842e-08
-1.17806e-07
4.85333e-08
-1.36286e-07
4.56738e-08
-1.54373e-07
4.3251e-08
-1.72142e-07
4.13049e-08
-1.89473e-07
3.96454e-08
-2.06418e-07
3.82507e-08
-2.22951e-07
3.70541e-08
-2.39078e-07
3.59669e-08
-2.54834e-07
3.49723e-08
-2.70217e-07
3.40055e-08
-2.85225e-07
3.3033e-08
-2.99883e-07
3.20587e-08
-3.14189e-07
3.10814e-08
-3.28142e-07
3.01277e-08
-3.41744e-07
2.9174e-08
-3.5499e-07
2.82532e-08
-3.67896e-07
2.73718e-08
-3.8043e-07
2.6463e-08
-3.92589e-07
2.55678e-08
-4.04418e-07
2.46964e-08
-4.15906e-07
2.38049e-08
-4.27058e-07
2.29337e-08
-4.37923e-07
2.21097e-08
-4.48482e-07
2.13261e-08
-4.5871e-07
2.0604e-08
-4.6864e-07
1.99859e-08
-4.78297e-07
1.94788e-08
-4.87635e-07
1.90553e-08
-4.96637e-07
1.87388e-08
-5.05361e-07
1.8573e-08
-5.13821e-07
1.85249e-08
-5.21943e-07
1.85609e-08
-5.29722e-07
1.87377e-08
-5.3723e-07
1.90856e-08
-5.44431e-07
1.95251e-08
-5.51224e-07
2.00007e-08
-5.57626e-07
2.05423e-08
-5.63707e-07
2.1118e-08
-5.69438e-07
2.1594e-08
-5.74766e-07
2.18868e-08
-5.79758e-07
2.20077e-08
-5.84521e-07
2.1948e-08
-5.89065e-07
2.16477e-08
-5.93359e-07
2.10866e-08
-5.97437e-07
2.03187e-08
-6.01365e-07
1.94064e-08
-6.05141e-07
1.83708e-08
-6.08717e-07
1.72141e-08
-6.1208e-07
1.59542e-08
-6.15257e-07
1.46171e-08
-6.18262e-07
1.32129e-08
-6.21083e-07
1.17381e-08
-6.23717e-07
1.01983e-08
-6.26186e-07
8.6138e-09
-6.28516e-07
7.01038e-09
-6.30708e-07
5.41948e-09
-6.32751e-07
3.8862e-09
-6.34638e-07
2.46021e-09
-6.36354e-07
1.17437e-09
-6.37872e-07
3.95212e-11
-6.39162e-07
-9.41258e-10
-6.40204e-07
-1.76514e-09
-6.40981e-07
-2.44074e-09
-6.41478e-07
-2.99916e-09
-6.41682e-07
-3.48757e-09
-6.41584e-07
-3.95287e-09
-6.41192e-07
-4.43325e-09
-6.40517e-07
-4.96147e-09
-6.39573e-07
-5.5703e-09
-6.38374e-07
-6.29129e-09
-6.36934e-07
-7.14813e-09
-6.3527e-07
-8.15086e-09
-6.33398e-07
-9.29514e-09
-6.3133e-07
-1.05657e-08
-6.29075e-07
-1.19434e-08
-6.2664e-07
-1.34097e-08
-6.24031e-07
-1.49455e-08
-6.21253e-07
-1.65235e-08
-6.18308e-07
-1.81045e-08
-6.15193e-07
-1.96418e-08
-6.11903e-07
-2.109e-08
-6.08428e-07
-2.24102e-08
-6.04748e-07
-2.35692e-08
-6.00838e-07
-2.45375e-08
-5.9667e-07
-2.52889e-08
-5.92211e-07
-2.5805e-08
-5.8743e-07
-2.60811e-08
-5.82291e-07
-2.61301e-08
-5.76751e-07
-2.59843e-08
-5.7077e-07
-2.5694e-08
-5.64315e-07
-2.53243e-08
-5.57364e-07
-2.49517e-08
-5.49915e-07
-2.46603e-08
-5.41982e-07
-2.45371e-08
-5.33594e-07
-2.46627e-08
-5.24793e-07
-2.50984e-08
-5.15623e-07
-2.58746e-08
-5.06128e-07
-2.69853e-08
-4.96343e-07
-2.83911e-08
-4.8629e-07
-3.00284e-08
-4.75975e-07
-3.18221e-08
-4.65389e-07
-3.36966e-08
-4.5451e-07
-3.55829e-08
-4.43306e-07
-3.74214e-08
-4.31749e-07
-3.91646e-08
-4.19817e-07
-4.07794e-08
-4.07496e-07
-4.2248e-08
-3.94783e-07
-4.35641e-08
-3.8168e-07
-4.47281e-08
-3.68193e-07
-4.57457e-08
-3.54335e-07
-4.66278e-08
-3.40125e-07
-4.73866e-08
-3.25593e-07
-4.80316e-08
-3.10782e-07
-4.85693e-08
-2.95737e-07
-4.9004e-08
-2.80506e-07
-4.93367e-08
-2.65136e-07
-4.95665e-08
-2.4968e-07
-4.96903e-08
-2.34191e-07
-4.96982e-08
-2.18728e-07
-4.95724e-08
-2.03351e-07
-4.92937e-08
-1.88122e-07
-4.88418e-08
-1.73105e-07
-4.81989e-08
-1.58369e-07
-4.7355e-08
-1.43986e-07
-4.63016e-08
-1.30031e-07
-4.50319e-08
-1.16587e-07
-4.35419e-08
-1.03731e-07
-4.18146e-08
-9.15319e-08
-3.98332e-08
-8.00501e-08
-3.75973e-08
-6.93321e-08
-3.51106e-08
-5.94185e-08
-3.23927e-08
-5.03296e-08
-2.94896e-08
-4.20667e-08
-2.64621e-08
-3.46241e-08
-2.33917e-08
-2.79712e-08
-2.03963e-08
-2.20573e-08
-1.76391e-08
-1.68383e-08
-1.53029e-08
-1.22301e-08
-1.36472e-08
-8.17786e-09
-1.29466e-08
-4.60065e-09
-1.35247e-08
-1.56145e-09
-1.46618e-08
-9.14429e-09
2.05503e-08
-1.27287e-07
4.84183e-08
-1.33516e-07
6.75013e-08
-3.31406e-08
7.79213e-08
4.08266e-08
8.15674e-08
8.35285e-08
7.98304e-08
1.06328e-07
7.37779e-08
1.16505e-07
6.42159e-08
1.18951e-07
5.17338e-08
1.16721e-07
3.68874e-08
1.11953e-07
2.01755e-08
1.05864e-07
2.05226e-09
9.9406e-08
-1.72163e-08
9.30841e-08
-3.72351e-08
8.71854e-08
-5.7774e-08
8.18347e-08
-7.86249e-08
7.71341e-08
-9.95961e-08
7.30554e-08
-1.20585e-07
6.95223e-08
-1.4145e-07
6.65383e-08
-1.62122e-07
6.39237e-08
-1.8256e-07
6.17429e-08
-2.027e-07
5.97846e-08
-2.22518e-07
5.80693e-08
-2.41961e-07
5.64972e-08
-2.61017e-07
5.50231e-08
-2.79686e-07
5.36409e-08
-2.97961e-07
5.22806e-08
-3.1585e-07
5.09216e-08
-3.33373e-07
4.95825e-08
-3.50503e-07
4.82111e-08
-3.6722e-07
4.68446e-08
-3.83553e-07
4.55074e-08
-3.99465e-07
4.41645e-08
-4.14946e-07
4.28527e-08
-4.30027e-07
4.15447e-08
-4.44679e-07
4.02193e-08
-4.58911e-07
3.89286e-08
-4.72765e-07
3.76585e-08
-4.86211e-07
3.63803e-08
-4.99242e-07
3.51405e-08
-5.11909e-07
3.39926e-08
-5.24222e-07
3.29178e-08
-5.36121e-07
3.18841e-08
-5.47593e-07
3.09509e-08
-5.58717e-07
3.018e-08
-5.69494e-07
2.95149e-08
-5.79823e-07
2.89021e-08
-5.89718e-07
2.84199e-08
-5.9928e-07
2.8123e-08
-6.08472e-07
2.79297e-08
-6.17176e-07
2.77897e-08
-6.25412e-07
2.77616e-08
-6.33268e-07
2.78566e-08
-6.40703e-07
2.79776e-08
-6.47629e-07
2.80434e-08
-6.54081e-07
2.80458e-08
-6.60161e-07
2.79673e-08
-6.6589e-07
2.77364e-08
-6.7124e-07
2.72985e-08
-6.76255e-07
2.66626e-08
-6.81022e-07
2.58532e-08
-6.85574e-07
2.48705e-08
-6.89892e-07
2.37243e-08
-6.93975e-07
2.24544e-08
-6.97854e-07
2.1093e-08
-7.01542e-07
1.9642e-08
-7.05025e-07
1.81005e-08
-7.083e-07
1.64876e-08
-7.11387e-07
1.48253e-08
-7.14309e-07
1.31204e-08
-7.1707e-07
1.13749e-08
-7.19669e-07
9.60878e-09
-7.22112e-07
7.86329e-09
-7.24409e-07
6.18315e-09
-7.26548e-07
4.59878e-09
-7.28499e-07
3.12501e-09
-7.30232e-07
1.77279e-09
-7.31728e-07
5.5489e-10
-7.3297e-07
-5.23519e-10
-7.33934e-07
-1.47648e-09
-7.34597e-07
-2.33589e-09
-7.34945e-07
-3.13963e-09
-7.34976e-07
-3.9223e-09
-7.34695e-07
-4.71448e-09
-7.3411e-07
-5.54596e-09
-7.33233e-07
-6.44707e-09
-7.32078e-07
-7.44624e-09
-7.30661e-07
-8.56505e-09
-7.28999e-07
-9.81296e-09
-7.27109e-07
-1.11854e-08
-7.25007e-07
-1.2668e-08
-7.22705e-07
-1.4245e-08
-7.20211e-07
-1.59038e-08
-7.17527e-07
-1.76299e-08
-7.14653e-07
-1.93978e-08
-7.11589e-07
-2.11685e-08
-7.08332e-07
-2.28983e-08
-7.04873e-07
-2.45489e-08
-7.01192e-07
-2.60913e-08
-6.97261e-07
-2.75007e-08
-6.93046e-07
-2.87521e-08
-6.88514e-07
-2.98212e-08
-6.83628e-07
-3.06914e-08
-6.78347e-07
-3.13618e-08
-6.72627e-07
-3.18495e-08
-6.66424e-07
-3.21881e-08
-6.59694e-07
-3.24239e-08
-6.52406e-07
-3.26118e-08
-6.44544e-07
-3.28141e-08
-6.36105e-07
-3.30996e-08
-6.27102e-07
-3.35396e-08
-6.17564e-07
-3.42005e-08
-6.0753e-07
-3.51326e-08
-5.97044e-07
-3.63609e-08
-5.86149e-07
-3.78807e-08
-5.74881e-07
-3.96591e-08
-5.63266e-07
-4.16434e-08
-5.51315e-07
-4.37728e-08
-5.39025e-07
-4.59865e-08
-5.26381e-07
-4.82273e-08
-5.13359e-07
-5.04426e-08
-4.99938e-07
-5.25858e-08
-4.86098e-07
-5.46198e-08
-4.71827e-07
-5.6519e-08
-4.57121e-07
-5.82701e-08
-4.4198e-07
-5.98686e-08
-4.26411e-07
-6.13148e-08
-4.10427e-07
-6.26117e-08
-3.94053e-07
-6.37615e-08
-3.7732e-07
-6.4764e-08
-3.60272e-07
-6.5617e-08
-3.42957e-07
-6.63193e-08
-3.25424e-07
-6.68698e-08
-3.07726e-07
-6.72642e-08
-2.89922e-07
-6.74943e-08
-2.72076e-07
-6.75447e-08
-2.54255e-07
-6.73928e-08
-2.36532e-07
-6.70168e-08
-2.18977e-07
-6.63973e-08
-2.01662e-07
-6.55139e-08
-1.84664e-07
-6.43527e-08
-1.68061e-07
-6.29046e-08
-1.51936e-07
-6.11567e-08
-1.36377e-07
-5.9101e-08
-1.21465e-07
-5.67272e-08
-1.07275e-07
-5.40228e-08
-9.38752e-08
-5.0997e-08
-8.13202e-08
-4.76657e-08
-6.96554e-08
-4.40576e-08
-5.891e-08
-4.02349e-08
-4.91002e-08
-3.62719e-08
-4.02297e-08
-3.22622e-08
-3.2275e-08
-2.8351e-08
-2.52141e-08
-2.47001e-08
-1.90011e-08
-2.15159e-08
-1.35754e-08
-1.90729e-08
-8.90116e-09
-1.76209e-08
-4.88495e-09
-1.7541e-08
-1.63386e-09
-1.79129e-08
-1.07782e-08
1.59534e-08
-1.43241e-07
3.91964e-08
-1.56759e-07
5.63588e-08
-5.0303e-08
6.67852e-08
3.04003e-08
7.14634e-08
7.88505e-08
7.12437e-08
1.06548e-07
6.66944e-08
1.21054e-07
5.85252e-08
1.2712e-07
4.71931e-08
1.28053e-07
3.32765e-08
1.2587e-07
1.70795e-08
1.22061e-07
-9.17347e-10
1.17403e-07
-2.03637e-08
1.1253e-07
-4.09421e-08
1.07764e-07
-6.23769e-08
1.0327e-07
-8.44272e-08
9.91845e-08
-1.06853e-07
9.54816e-08
-1.29553e-07
9.22219e-08
-1.52296e-07
8.9281e-08
-1.75071e-07
8.66988e-08
-1.97665e-07
8.43373e-08
-2.20095e-07
8.22142e-08
-2.42273e-07
8.02471e-08
-2.64162e-07
7.83864e-08
-2.85722e-07
7.65829e-08
-3.06898e-07
7.48169e-08
-3.27694e-07
7.30773e-08
-3.48093e-07
7.13203e-08
-3.6808e-07
6.95698e-08
-3.87666e-07
6.77972e-08
-4.06815e-07
6.59936e-08
-4.25532e-07
6.42243e-08
-4.43804e-07
6.24365e-08
-4.61572e-07
6.06202e-08
-4.78876e-07
5.88487e-08
-4.95752e-07
5.70958e-08
-5.12134e-07
5.531e-08
-5.28008e-07
5.35327e-08
-5.43453e-07
5.18254e-08