/*--------------------------------*- C++ -*----------------------------------*\
  =========                 |
  \\      /  F ield         | OpenFOAM: The Open Source CFD Toolbox
   \\    /   O peration     | Website:  https://openfoam.org
    \\  /    A nd           | Version:  7
     \\/     M anipulation  |
\*---------------------------------------------------------------------------*/
FoamFile
{
    version     2.0;
    format      ascii;
    class       volScalarField;
    location    "0.025";
    object      p;
}
// * * * * * * * * * * * * * * * * * * * * * * * * * * * * * * * * * * * * * //

dimensions      [0 2 -2 0 0 0 0];

internalField   nonuniform List<scalar> 
51200
(
-7.92295e-09
-4.65759e-06
-1.70821e-05
-3.81268e-05
-6.0003e-05
-7.88181e-05
-9.4379e-05
-0.000107308
-0.000118148
-0.00012733
-0.000135167
-0.000141852
-0.000147572
-0.000152535
-0.000156855
-0.000160584
-0.000163725
-0.000166303
-0.000168425
-0.000170146
-0.00017149
-0.000172444
-0.000172983
-0.000173176
-0.000173087
-0.000172736
-0.000172139
-0.000171261
-0.000170078
-0.000168643
-0.000166994
-0.000165156
-0.000163167
-0.000161013
-0.000158672
-0.000156153
-0.000153444
-0.000150525
-0.000147417
-0.000144141
-0.000140687
-0.000137054
-0.000133228
-0.000129173
-0.000124877
-0.000120373
-0.000115662
-0.000110718
-0.000105552
-0.000100173
-9.45779e-05
-8.87951e-05
-8.28596e-05
-7.67608e-05
-7.04811e-05
-6.40463e-05
-5.75e-05
-5.08811e-05
-4.42323e-05
-3.75792e-05
-3.08972e-05
-2.4145e-05
-1.73247e-05
-1.04742e-05
-3.60986e-06
3.28811e-06
1.02358e-05
1.72263e-05
2.424e-05
3.12391e-05
3.81648e-05
4.49764e-05
5.16838e-05
5.83158e-05
6.48709e-05
7.13257e-05
7.76704e-05
8.3903e-05
9.00063e-05
9.59661e-05
0.000101806
0.000107577
0.000113316
0.000119037
0.000124759
0.000130507
0.000136287
0.000142083
0.000147885
0.000153707
0.000159566
0.000165471
0.00017142
0.000177409
0.000183419
0.000189427
0.000195422
0.000201415
0.000207415
0.000213401
0.000219336
0.000225202
0.000231014
0.000236781
0.000242487
0.000248104
0.000253608
0.000258991
0.000264244
0.000269358
0.000274339
0.000279205
0.000283971
0.000288628
0.000293168
0.000297599
0.000301936
0.000306177
0.000310288
0.000314239
0.000318028
0.000321676
0.000325198
0.00032859
0.000331847
0.000334971
0.000337963
0.000340815
0.000343509
0.000346048
0.00034845
0.000350725
0.000352848
0.000354773
0.000356466
0.000357921
0.000359147
0.000360138
0.000360884
0.00036139
0.000361682
0.000361783
0.000361693
0.000361396
0.000360888
0.000360191
0.000359339
0.000358353
0.000357249
0.000356044
0.000354765
0.000353426
0.000352021
0.000350542
0.000349016
0.000347541
0.000346262
0.000345335
0.000344883
0.000344898
-4.38029e-06
-1.79474e-05
-3.30765e-05
-5.18102e-05
-7.00029e-05
-8.52336e-05
-9.79924e-05
-0.000108882
-0.00011828
-0.000126449
-0.000133586
-0.000139806
-0.00014523
-0.000149936
-0.000154054
-0.000157649
-0.000160716
-0.000163283
-0.000165354
-0.000167018
-0.000168332
-0.000169282
-0.000169884
-0.000170133
-0.000170045
-0.000169693
-0.000169083
-0.000168208
-0.000167087
-0.000165704
-0.000164079
-0.000162269
-0.000160283
-0.000158127
-0.000155825
-0.000153361
-0.000150715
-0.000147895
-0.000144886
-0.000141675
-0.000138286
-0.000134728
-0.000130977
-0.000127015
-0.000122832
-0.000118411
-0.000113749
-0.000108856
-0.000103729
-9.83623e-05
-9.27703e-05
-8.69844e-05
-8.10374e-05
-7.49528e-05
-6.87451e-05
-6.2422e-05
-5.59849e-05
-4.94462e-05
-4.28431e-05
-3.62124e-05
-2.95562e-05
-2.28535e-05
-1.60946e-05
-9.28743e-06
-2.44286e-06
4.42725e-06
1.13097e-05
1.82025e-05
2.51114e-05
3.20195e-05
3.88807e-05
4.56553e-05
5.23314e-05
5.89058e-05
6.5367e-05
7.17093e-05
7.79415e-05
8.40683e-05
9.00807e-05
9.59758e-05
0.000101772
0.000107497
0.000113173
0.000118827
0.00012449
0.000130186
0.000135915
0.000141669
0.000147446
0.000153246
0.000159063
0.000164896
0.000170761
0.000176676
0.000182626
0.000188575
0.000194502
0.000200416
0.000206329
0.000212229
0.000218093
0.000223909
0.000229683
0.000235407
0.000241059
0.000246621
0.000252087
0.000257445
0.00026267
0.000267744
0.000272676
0.000277494
0.000282211
0.000286815
0.000291296
0.000295665
0.000299934
0.000304098
0.000308133
0.000312021
0.000315765
0.000319376
0.000322855
0.000326198
0.000329412
0.000332506
0.000335486
0.000338334
0.000341033
0.000343582
0.000345993
0.000348267
0.00035038
0.000352292
0.00035398
0.000355438
0.000356664
0.000357651
0.000358391
0.000358898
0.000359205
0.000359333
0.000359279
0.000359026
0.000358573
0.000357951
0.000357198
0.000356342
0.000355394
0.000354365
0.000353274
0.000352131
0.000350933
0.000349677
0.000348394
0.000347169
0.00034612
0.00034536
0.000344968
0.00034494
-1.56516e-05
-3.20258e-05
-4.76158e-05
-6.39265e-05
-7.89011e-05
-9.13966e-05
-0.00010206
-0.000111319
-0.000119443
-0.000126643
-0.000133044
-0.000138766
-0.000143824
-0.000148266
-0.00015215
-0.000155536
-0.000158492
-0.000160981
-0.000163009
-0.000164625
-0.000165862
-0.000166788
-0.000167408
-0.00016768
-0.000167633
-0.000167278
-0.000166634
-0.000165758
-0.000164643
-0.000163277
-0.000161694
-0.000159903
-0.000157919
-0.000155783
-0.000153497
-0.000151051
-0.000148456
-0.000145705
-0.000142768
-0.000139639
-0.000136324
-0.000132814
-0.000129116
-0.000125225
-0.000121111
-0.000116749
-0.000112139
-0.000107284
-0.000102187
-9.68545e-05
-9.12926e-05
-8.55191e-05
-7.95678e-05
-7.34765e-05
-6.72822e-05
-6.10071e-05
-5.46436e-05
-4.818e-05
-4.16333e-05
-3.50343e-05
-2.84001e-05
-2.17346e-05
-1.50311e-05
-8.27036e-06
-1.44537e-06
5.41573e-06
1.22747e-05
1.91201e-05
2.59567e-05
3.27734e-05
3.95451e-05
4.62528e-05
5.28771e-05
5.93893e-05
6.577e-05
7.20246e-05
7.81659e-05
8.4195e-05
9.0114e-05
9.59417e-05
0.0001017
0.000107396
0.00011304
0.000118666
0.000124313
0.000129991
0.000135692
0.000141418
0.00014718
0.000152972
0.000158767
0.000164553
0.000170353
0.000176193
0.000182062
0.00018793
0.000193782
0.000199625
0.000205458
0.000211272
0.000217062
0.000222833
0.000228582
0.000234279
0.000239897
0.000245429
0.00025088
0.000256231
0.000261448
0.000266509
0.000271425
0.000276216
0.000280887
0.000285429
0.000289846
0.000294152
0.000298353
0.000302434
0.000306381
0.000310196
0.000313889
0.000317462
0.000320903
0.000324211
0.000327402
0.00033049
0.000333473
0.000336333
0.000339056
0.000341643
0.000344092
0.000346381
0.000348483
0.000350375
0.000352053
0.000353514
0.000354746
0.000355732
0.00035647
0.00035698
0.000357295
0.000357432
0.00035739
0.000357165
0.000356767
0.000356225
0.000355567
0.000354813
0.000353976
0.000353067
0.000352102
0.000351087
0.000350019
0.000348905
0.000347784
0.000346729
0.000345823
0.000345136
0.000344713
0.000344557
-3.46126e-05
-4.90176e-05
-6.23252e-05
-7.5116e-05
-8.69273e-05
-9.71097e-05
-0.000106001
-0.000113902
-0.000120995
-0.000127355
-0.000133097
-0.000138285
-0.000142964
-0.000147139
-0.000150788
-0.000153978
-0.000156749
-0.000159114
-0.000161097
-0.000162664
-0.00016386
-0.000164743
-0.000165312
-0.000165593
-0.00016557
-0.000165219
-0.000164585
-0.000163688
-0.000162536
-0.000161173
-0.000159599
-0.000157813
-0.00015586
-0.000153752
-0.000151481
-0.000149067
-0.000146506
-0.000143784
-0.000140904
-0.000137856
-0.000134608
-0.000131158
-0.000127511
-0.000123653
-0.000119572
-0.000115252
-0.000110675
-0.000105841
-0.000100765
-9.54596e-05
-8.99351e-05
-8.42083e-05
-7.8296e-05
-7.2223e-05
-6.60309e-05
-5.97555e-05
-5.34072e-05
-4.69878e-05
-4.05009e-05
-3.39471e-05
-2.73369e-05
-2.06959e-05
-1.40305e-05
-7.31442e-06
-5.32169e-07
6.29427e-06
1.31342e-05
1.99685e-05
2.6773e-05
3.35188e-05
4.01965e-05
4.68102e-05
5.33436e-05
5.97647e-05
6.60633e-05
7.22515e-05
7.83311e-05
8.42913e-05
9.0142e-05
9.59175e-05
0.000101641
0.000107314
0.000112947
0.000118579
0.000124242
0.00012993
0.000135631
0.00014135
0.000147101
0.000152872
0.00015864
0.0001644
0.000170164
0.000175937
0.00018171
0.000187477
0.000193249
0.000199026
0.00020479
0.00021053
0.000216255
0.00022198
0.000227692
0.000233357
0.000238951
0.000244474
0.00024992
0.000255261
0.000260466
0.000265523
0.000270438
0.00027521
0.000279828
0.000284294
0.000288634
0.000292871
0.000297
0.000301001
0.000304869
0.000308618
0.00031226
0.000315788
0.000319191
0.000322478
0.000325671
0.000328777
0.000331781
0.000334663
0.000337419
0.000340051
0.000342539
0.000344842
0.000346928
0.000348795
0.000350459
0.000351921
0.000353159
0.000354151
0.000354898
0.000355422
0.000355748
0.000355885
0.000355843
0.000355642
0.000355308
0.00035486
0.000354298
0.000353622
0.000352846
0.000352
0.000351107
0.000350171
0.00034919
0.000348176
0.000347167
0.000346216
0.000345368
0.00034466
0.000344117
0.000343743
-5.38245e-05
-6.4992e-05
-7.53014e-05
-8.50138e-05
-9.41924e-05
-0.000102451
-0.000109857
-0.000116587
-0.000122744
-0.00012839
-0.000133533
-0.000138207
-0.000142481
-0.000146334
-0.000149767
-0.000152762
-0.000155336
-0.000157557
-0.00015942
-0.000160938
-0.000162121
-0.000162955
-0.000163486
-0.000163736
-0.00016368
-0.000163342
-0.000162719
-0.000161801
-0.000160639
-0.000159259
-0.000157659
-0.000155879
-0.000153942
-0.000151841
-0.000149601
-0.000147228
-0.000144695
-0.000142003
-0.000139165
-0.000136156
-0.00013296
-0.000129574
-0.00012597
-0.000122138
-0.000118081
-0.000113783
-0.000109229
-0.000104421
-9.93638e-05
-9.40683e-05
-8.85623e-05
-8.28695e-05
-7.70035e-05
-7.09862e-05
-6.48411e-05
-5.85852e-05
-5.22442e-05
-4.58479e-05
-3.94012e-05
-3.28914e-05
-2.63208e-05
-1.9707e-05
-1.30547e-05
-6.35722e-06
3.8096e-07
7.14905e-06
1.39414e-05
2.074e-05
2.75029e-05
3.41937e-05
4.08052e-05
4.73373e-05
5.37734e-05
6.00977e-05
6.63169e-05
7.24426e-05
7.8469e-05
8.43882e-05
9.02144e-05
9.59731e-05
0.000101677
0.000107334
0.000112968
0.000118612
0.000124282
0.000129973
0.000135683
0.000141413
0.000147155
0.00015289
0.000158615
0.000164345
0.000170079
0.0001758
0.000181494
0.000187177
0.000192875
0.000198584
0.000204284
0.000209969
0.00021565
0.000221329
0.000226985
0.000232595
0.000238154
0.000243659
0.000249088
0.000254403
0.00025958
0.00026462
0.000269521
0.000274261
0.000278823
0.00028322
0.000287489
0.000291652
0.000295707
0.000299639
0.000303453
0.000307162
0.000310765
0.000314252
0.000317622
0.000320898
0.0003241
0.000327228
0.000330255
0.000333163
0.000335947
0.000338602
0.000341095
0.000343382
0.00034544
0.000347283
0.000348935
0.000350396
0.000351638
0.000352639
0.000353405
0.000353953
0.000354298
0.000354448
0.000354422
0.000354259
0.000353993
0.00035363
0.000353148
0.00035253
0.000351793
0.000350979
0.000350125
0.000349244
0.000348334
0.000347403
0.000346472
0.000345568
0.000344709
0.000343918
0.000343209
0.000342585
-6.96431e-05
-7.77196e-05
-8.55443e-05
-9.30632e-05
-0.00010038
-0.000107151
-0.000113399
-0.000119163
-0.000124527
-0.000129529
-0.000134155
-0.000138408
-0.000142273
-0.000145801
-0.000148979
-0.000151773
-0.000154206
-0.000156265
-0.000157995
-0.000159437
-0.000160563
-0.000161378
-0.000161898
-0.0001621
-0.000162015
-0.00016166
-0.000161014
-0.000160101
-0.000158946
-0.000157548
-0.000155947
-0.000154174
-0.000152228
-0.000150133
-0.000147912
-0.000145552
-0.000143046
-0.000140392
-0.000137572
-0.000134575
-0.000131401
-0.000128034
-0.000124451
-0.000120639
-0.000116591
-0.000112301
-0.000107766
-0.000102988
-9.79645e-05
-9.27038e-05
-8.72259e-05
-8.15542e-05
-7.57193e-05
-6.97516e-05
-6.36626e-05
-5.74569e-05
-5.11564e-05
-4.47867e-05
-3.83595e-05
-3.18829e-05
-2.53621e-05
-1.87892e-05
-1.21555e-05
-5.47344e-06
1.23537e-06
7.96292e-06
1.47048e-05
2.14373e-05
2.81276e-05
3.47569e-05
4.13145e-05
4.77826e-05
5.41467e-05
6.04105e-05
6.6584e-05
7.26661e-05
7.86526e-05
8.45541e-05
9.03863e-05
9.61522e-05
0.000101853
0.000107509
0.000113152
0.000118802
0.000124458
0.000130126
0.000135824
0.000141549
0.000147273
0.000152974
0.000158663
0.000164359
0.000170056
0.000175732
0.000181384
0.000187031
0.000192685
0.000198339
0.000203985
0.000209629
0.000215275
0.000220904
0.000226491
0.000232029
0.000237529
0.000242986
0.000248364
0.00025363
0.000258768
0.000263776
0.000268638
0.000273328
0.000277838
0.000282192
0.000286418
0.000290532
0.00029453
0.000298418
0.000302207
0.000305899
0.000309481
0.000312943
0.000316298
0.000319574
0.000322782
0.000325912
0.000328944
0.000331862
0.000334656
0.000337301
0.000339756
0.00034199
0.000344005
0.000345824
0.000347465
0.000348921
0.000350168
0.000351187
0.000351983
0.000352564
0.000352939
0.00035312
0.000353138
0.000353033
0.000352829
0.00035252
0.000352079
0.000351495
0.000350788
0.000350006
0.000349185
0.000348342
0.000347478
0.000346595
0.000345695
0.000344779
0.000343857
0.000342957
0.000342083
0.000341218
-8.20369e-05
-8.78396e-05
-9.38552e-05
-9.9765e-05
-0.000105679
-0.000111316
-0.000116653
-0.000121667
-0.000126363
-0.000130779
-0.000134944
-0.000138796
-0.000142332
-0.00014555
-0.000148438
-0.000151034
-0.000153299
-0.000155229
-0.000156857
-0.000158184
-0.000159232
-0.000160014
-0.000160494
-0.000160677
-0.000160579
-0.000160184
-0.000159521
-0.000158613
-0.00015745
-0.000156059
-0.000154478
-0.000152707
-0.00015077
-0.000148692
-0.000146467
-0.0001441
-0.000141605
-0.000138957
-0.000136137
-0.00013314
-0.000129954
-0.000126568
-0.000122976
-0.00011916
-0.000115109
-0.000110819
-0.000106293
-0.000101533
-9.65461e-05
-9.13387e-05
-8.59155e-05
-8.0294e-05
-7.45051e-05
-6.85764e-05
-6.25266e-05
-5.63736e-05
-5.01298e-05
-4.37991e-05
-3.73951e-05
-3.09449e-05
-2.44589e-05
-1.79222e-05
-1.13271e-05
-4.68754e-06
1.98393e-06
8.68006e-06
1.53781e-05
2.20445e-05
2.86624e-05
3.52295e-05
4.17308e-05
4.81429e-05
5.44634e-05
6.07067e-05
6.68733e-05
7.29486e-05
7.89332e-05
8.48467e-05
9.06975e-05
9.64748e-05
0.000102179
0.000107839
0.000113484
0.000119119
0.000124744
0.000130375
0.000136034
0.000141713
0.000147392
0.000153063
0.000158735
0.000164412
0.000170079
0.000175729
0.000181374
0.000187024
0.00019267
0.000198299
0.000203914
0.000209527
0.000215129
0.000220692
0.000226198
0.000231656
0.000237077
0.000242448
0.000247739
0.000252931
0.000258019
0.000262984
0.000267798
0.000272437
0.000276911
0.000281249
0.000285467
0.000289566
0.000293548
0.000297428
0.000301219
0.00030491
0.000308483
0.000311938
0.000315297
0.000318582
0.000321789
0.0003249
0.000327904
0.000330799
0.000333567
0.000336168
0.000338558
0.000340724
0.000342688
0.000344479
0.000346105
0.000347551
0.000348803
0.00034985
0.000350692
0.000351321
0.000351739
0.000351967
0.000352042
0.000351997
0.000351841
0.000351554
0.00035112
0.00035055
0.000349876
0.000349136
0.000348353
0.000347535
0.000346686
0.000345804
0.000344882
0.000343912
0.000342905
0.000341901
0.000340883
0.000339795
-9.18401e-05
-9.60647e-05
-0.000100749
-0.000105482
-0.000110337
-0.000115056
-0.000119649
-0.000124051
-0.000128207
-0.000132142
-0.000135849
-0.000139339
-0.000142579
-0.000145512
-0.000148163
-0.000150526
-0.000152605
-0.000154418
-0.000155936
-0.000157169
-0.000158146
-0.000158847
-0.000159273
-0.000159436
-0.000159308
-0.000158898
-0.000158239
-0.000157321
-0.000156164
-0.0001548
-0.00015323
-0.000151473
-0.000149559
-0.000147492
-0.000145265
-0.000142894
-0.000140379
-0.000137702
-0.000134857
-0.000131833
-0.000128611
-0.000125184
-0.000121555
-0.000117712
-0.000113647
-0.00010936
-0.000104844
-0.000100103
-9.51483e-05
-8.99841e-05
-8.4618e-05
-7.90671e-05
-7.33466e-05
-6.74695e-05
-6.14621e-05
-5.53537e-05
-4.9155e-05
-4.28673e-05
-3.65051e-05
-3.00879e-05
-2.36217e-05
-1.71073e-05
-1.05535e-05
-3.96704e-06
2.65404e-06
9.30026e-06
1.59403e-05
2.25461e-05
2.91105e-05
3.56283e-05
4.20817e-05
4.84584e-05
5.47664e-05
6.10147e-05
6.71943e-05
7.32925e-05
7.9313e-05
8.52636e-05
9.11379e-05
9.6926e-05
0.000102638
0.000108297
0.000113918
0.000119509
0.000125087
0.000130673
0.000136275
0.000141885
0.000147501
0.000153139
0.000158804
0.000164478
0.000170143
0.000175803
0.000181471
0.000187144
0.0001928
0.000198429
0.000204037
0.000209623
0.000215166
0.000220645
0.000226061
0.000231432
0.000236759
0.000242023
0.000247209
0.000252318
0.000257344
0.000262261
0.000267031
0.000271643
0.000276114
0.000280465
0.000284699
0.000288814
0.000292816
0.000296722
0.000300533
0.000304233
0.000307807
0.000311268
0.000314639
0.00031793
0.000321122
0.000324197
0.000327153
0.000329995
0.000332701
0.00033523
0.000337545
0.000339648
0.000341569
0.000343331
0.000344934
0.000346365
0.000347621
0.000348701
0.000349597
0.000350287
0.000350763
0.000351044
0.00035117
0.000351165
0.000351026
0.000350738
0.000350305
0.000349754
0.000349121
0.000348428
0.000347677
0.000346868
0.000346002
0.000345084
0.000344106
0.000343064
0.000341975
0.000340883
0.000339735
0.00033843
-9.96884e-05
-0.000102881
-0.000106582
-0.000110453
-0.000114492
-0.000118492
-0.000122443
-0.000126303
-0.000130028
-0.000133555
-0.000136887
-0.000140034
-0.000142963
-0.000145665
-0.000148093
-0.000150241
-0.000152151
-0.000153806
-0.000155206
-0.000156362
-0.000157251
-0.000157873
-0.000158246
-0.00015835
-0.000158188
-0.000157781
-0.000157116
-0.000156206
-0.000155082
-0.000153741
-0.000152195
-0.000150469
-0.000148569
-0.000146503
-0.000144282
-0.0001419
-0.00013935
-0.000136629
-0.000133731
-0.000130649
-0.000127372
-0.000123892
-0.00012021
-0.000116324
-0.000112234
-0.000107942
-0.000103442
-9.8733e-05
-9.38145e-05
-8.86911e-05
-8.33758e-05
-7.78861e-05
-7.22305e-05
-6.64178e-05
-6.04688e-05
-5.44037e-05
-4.82367e-05
-4.19868e-05
-3.5671e-05
-2.92916e-05
-2.28502e-05
-1.6363e-05
-9.84648e-06
-3.30173e-06
3.27046e-06
9.8521e-06
1.64216e-05
2.29702e-05
2.94913e-05
3.59686e-05
4.23903e-05
4.87607e-05
5.50855e-05
6.13559e-05
6.75597e-05
7.36966e-05
7.97676e-05
8.57589e-05
9.16532e-05
9.7452e-05
0.000103172
0.000108821
0.000114403
0.000119936
0.000125455
0.000130984
0.000136521
0.000142062
0.000147627
0.000153239
0.000158896
0.000164576
0.000170265
0.000175968
0.000181679
0.000187379
0.000193048
0.000198683
0.000204285
0.000209838
0.000215313
0.000220704
0.000226031
0.000231309
0.000236533
0.00024169
0.000246782
0.000251818
0.000256786
0.000261655
0.000266399
0.000271015
0.000275516
0.000279904
0.00028417
0.000288315
0.000292354
0.000296296
0.000300129
0.000303837
0.000307421
0.000310898
0.000314283
0.000317565
0.000320724
0.000323751
0.000326653
0.00032943
0.000332061
0.00033451
0.000336758
0.000338817
0.000340707
0.000342439
0.000344011
0.000345423
0.000346684
0.000347796
0.000348739
0.000349486
0.00035002
0.000350353
0.000350512
0.000350515
0.000350365
0.000350067
0.000349645
0.000349132
0.00034855
0.000347898
0.000347162
0.000346338
0.000345436
0.000344465
0.000343424
0.000342312
0.000341151
0.000339973
0.000338687
0.000337159
-0.000106051
-0.000108617
-0.000111623
-0.000114807
-0.000118234
-0.000121672
-0.00012509
-0.000128486
-0.0001318
-0.000134996
-0.000138027
-0.000140858
-0.000143519
-0.000145977
-0.000148192
-0.000150176
-0.000151909
-0.000153406
-0.000154689
-0.000155731
-0.000156525
-0.000157085
-0.000157384
-0.000157426
-0.00015724
-0.000156812
-0.000156145
-0.000155262
-0.000154164
-0.000152852
-0.000151347
-0.000149653
-0.000147766
-0.000145704
-0.000143476
-0.00014107
-0.000138481
-0.000135709
-0.000132746
-0.00012959
-0.000126245
-0.000122704
-0.000118968
-0.000115039
-0.000110919
-0.000106613
-0.000102123
-9.7441e-05
-9.25607e-05
-8.74853e-05
-8.22221e-05
-7.67806e-05
-7.11751e-05
-6.54236e-05
-5.95366e-05
-5.35192e-05
-4.73892e-05
-4.11757e-05
-3.4894e-05
-2.85439e-05
-2.2135e-05
-1.56869e-05
-9.20745e-06
-2.69715e-06
3.8287e-06
1.03484e-05
1.68567e-05
2.33574e-05
2.98388e-05
3.62826e-05
4.26899e-05
4.90726e-05
5.54244e-05
6.17239e-05
6.79618e-05
7.41421e-05
8.02552e-05
8.62741e-05
9.21835e-05
9.7993e-05
0.000103715
0.000109347
0.000114893
0.000120382
0.000125851
0.000131318
0.000136791
0.000142283
0.000147824
0.000153426
0.000159079
0.000164769
0.000170494
0.000176244
0.000181994
0.000187711
0.000193384
0.000199014
0.000204593
0.000210092
0.000215494
0.000220809
0.000226058
0.00023125
0.000236378
0.000241448
0.000246474
0.00025146
0.000256386
0.000261223
0.000265962
0.000270606
0.000275151
0.000279579
0.000283878
0.000288056
0.000292127
0.00029609
0.000299929
0.000303638
0.000307231
0.000310727
0.000314119
0.000317382
0.000320499
0.000323476
0.000326326
0.000329046
0.000331611
0.000333997
0.000336203
0.000338236
0.000340104
0.000341804
0.000343341
0.000344733
0.000345998
0.000347132
0.000348108
0.00034889
0.000349463
0.00034983
0.000350003
0.000349995
0.000349823
0.000349521
0.000349126
0.000348665
0.000348132
0.000347502
0.000346759
0.000345907
0.000344965
0.000343946
0.00034285
0.000341675
0.000340438
0.000339161
0.000337719
0.000335965
-0.000111258
-0.000113481
-0.000116012
-0.000118687
-0.000121606
-0.000124598
-0.000127621
-0.000130607
-0.000133563
-0.000136457
-0.000139211
-0.000141811
-0.000144228
-0.000146444
-0.000148478
-0.000150286
-0.00015186
-0.000153228
-0.000154373
-0.00015529
-0.000155994
-0.000156462
-0.000156687
-0.000156686
-0.000156456
-0.000156002
-0.000155342
-0.000154476
-0.000153397
-0.000152119
-0.000150647
-0.000148976
-0.000147107
-0.000145049
-0.000142803
-0.000140363
-0.00013773
-0.000134904
-0.000131876
-0.000128649
-0.000125235
-0.000121632
-0.000117845
-0.000113879
-0.000109737
-0.00010542
-0.00010093
-9.62609e-05
-9.14085e-05
-8.63757e-05
-8.11608e-05
-7.5765e-05
-7.02063e-05
-6.45047e-05
-5.86669e-05
-5.26991e-05
-4.662e-05
-4.04479e-05
-3.41919e-05
-2.78648e-05
-2.14882e-05
-1.50752e-05
-8.62702e-06
-2.15279e-06
4.32585e-06
1.0797e-05
1.7265e-05
2.37292e-05
3.01767e-05
3.6601e-05
4.30105e-05
4.94081e-05
5.57779e-05
6.21021e-05
6.83749e-05
7.45897e-05
8.07246e-05
8.67565e-05
9.2681e-05
9.8504e-05
0.000104224
0.00010984
0.00011537
0.000120845
0.000126289
0.000131716
0.000137148
0.000142619
0.000148158
0.000153763
0.000159421
0.000165127
0.00017088
0.000176655
0.000182411
0.00018812
0.000193778
0.000199381
0.000204909
0.000210338
0.000215669
0.000220923
0.000226112
0.000231237
0.000236298
0.000241314
0.000246306
0.000251266
0.000256169
0.000260998
0.000265752
0.000270427
0.000275004
0.000279455
0.000283772
0.000287968
0.000292049
0.000296007
0.000299832
0.000303531
0.000307131
0.000310636
0.000314024
0.000317264
0.000320345
0.000323285
0.000326098
0.000328776
0.000331298
0.000333651
0.00033584
0.000337864
0.000339712
0.00034138
0.000342882
0.000344254
0.000345517
0.000346659
0.000347643
0.000348435
0.000349019
0.000349396
0.000349568
0.000349549
0.00034937
0.000349082
0.000348726
0.000348309
0.000347803
0.000347175
0.000346415
0.00034554
0.000344571
0.000343518
0.000342371
0.000341127
0.000339797
0.000338399
0.000336794
0.00033483
-0.000115532
-0.00011759
-0.000119853
-0.000122153
-0.000124665
-0.000127301
-0.000129987
-0.000132677
-0.000135339
-0.000137936
-0.000140461
-0.000142848
-0.000145051
-0.000147088
-0.000148927
-0.000150565
-0.000152009
-0.000153238
-0.000154253
-0.000155067
-0.000155659
-0.000156027
-0.000156186
-0.000156127
-0.000155849
-0.000155377
-0.000154711
-0.000153843
-0.000152782
-0.000151527
-0.000150066
-0.000148405
-0.000146548
-0.000144486
-0.000142217
-0.000139743
-0.000137064
-0.000134182
-0.000131098
-0.000127815
-0.000124344
-0.000120689
-0.000116858
-0.000112861
-0.000108702
-0.000104378
-9.98855e-05
-9.52211e-05
-9.0384e-05
-8.53748e-05
-8.01928e-05
-7.48416e-05
-6.93326e-05
-6.36751e-05
-5.78783e-05
-5.19601e-05
-4.59346e-05
-3.98042e-05
-3.35772e-05
-2.72782e-05
-2.09287e-05
-1.45358e-05
-8.10904e-06
-1.66923e-06
4.77007e-06
1.12116e-05
1.7656e-05
2.40924e-05
3.05163e-05
3.69364e-05
4.33562e-05
4.97614e-05
5.61361e-05
6.24746e-05
6.87698e-05
7.49987e-05
8.1136e-05
8.71741e-05
9.31168e-05
9.89581e-05
0.000104686
0.000110307
0.000115851
0.000121343
0.000126795
0.000132219
0.000137653
0.000143137
0.000148687
0.000154298
0.000159963
0.000165684
0.000171443
0.000177202
0.000182924
0.000188593
0.000194209
0.000199756
0.000205213
0.000210569
0.000215842
0.000221051
0.000226197
0.00023128
0.00023631
0.000241313
0.000246297
0.000251247
0.000256143
0.000260978
0.000265752
0.000270445
0.000275025
0.00027947
0.000283782
0.000287971
0.000292034
0.000295963
0.000299759
0.000303446
0.000307046
0.000310548
0.000313921
0.00031714
0.000320205
0.000323131
0.000325926
0.00032858
0.000331081
0.000333428
0.000335617
0.000337636
0.000339466
0.000341105
0.000342583
0.000343939
0.00034519
0.000346318
0.000347286
0.000348066
0.000348645
0.000349019
0.000349189
0.000349172
0.000349011
0.000348756
0.000348436
0.00034804
0.000347534
0.000346893
0.000346122
0.000345243
0.000344265
0.000343181
0.000341976
0.000340642
0.0003392
0.000337673
0.000335918
0.000333781
-0.000119082
-0.000121084
-0.000123167
-0.000125242
-0.000127481
-0.000129799
-0.000132219
-0.000134678
-0.000137095
-0.00013947
-0.00014177
-0.000143949
-0.000145994
-0.000147856
-0.000149527
-0.000151027
-0.000152328
-0.000153427
-0.000154336
-0.000155039
-0.000155526
-0.000155811
-0.000155894
-0.000155767
-0.000155448
-0.000154945
-0.000154253
-0.000153375
-0.000152314
-0.000151057
-0.000149592
-0.000147928
-0.000146062
-0.000143982
-0.000141689
-0.000139184
-0.000136463
-0.000133534
-0.000130406
-0.000127083
-0.000123571
-0.000119881
-0.000116021
-0.000111999
-0.000107822
-0.000103486
-9.89877e-05
-9.43258e-05
-8.94955e-05
-8.44946e-05
-7.93304e-05
-7.40141e-05
-6.85485e-05
-6.29343e-05
-5.71849e-05
-5.13184e-05
-4.53389e-05
-3.92456e-05
-3.30539e-05
-2.67872e-05
-2.04573e-05
-1.40748e-05
-7.66426e-06
-1.2486e-06
5.17086e-06
1.15998e-05
1.8029e-05
2.4447e-05
3.08613e-05
3.72843e-05
4.37077e-05
5.01099e-05
5.64821e-05
6.28241e-05
6.91206e-05
7.53431e-05
8.1476e-05
8.75237e-05
9.3487e-05
9.93512e-05
0.000105107
0.000110769
0.000116361
0.000121897
0.000127385
0.000132848
0.000138328
0.00014385
0.000149419
0.000155036
0.000160707
0.000166425
0.000172159
0.000177866
0.000183523
0.000189128
0.000194676
0.000200146
0.000205524
0.00021082
0.000216053
0.000221231
0.00022635
0.000231415
0.000236448
0.000241463
0.000246454
0.000251401
0.000256296
0.000261139
0.000265918
0.0002706
0.000275153
0.000279567
0.000283854
0.000288016
0.000292043
0.00029593
0.000299698
0.000303377
0.000306973
0.000310464
0.000313819
0.000317027
0.000320095
0.000323027
0.000325819
0.000328462
0.000330958
0.000333308
0.000335501
0.000337512
0.000339323
0.000340946
0.000342416
0.000343766
0.000344998
0.000346094
0.000347029
0.000347787
0.00034836
0.000348736
0.000348916
0.000348923
0.000348798
0.00034858
0.000348281
0.000347881
0.000347356
0.000346704
0.000345938
0.00034507
0.000344085
0.000342959
0.000341673
0.000340234
0.000338675
0.000337033
0.00033516
0.000332891
-0.000122123
-0.000124076
-0.000126046
-0.000127986
-0.00013004
-0.000132158
-0.000134353
-0.00013659
-0.00013884
-0.00014103
-0.000143127
-0.000145142
-0.000147017
-0.000148725
-0.00015027
-0.000151631
-0.000152804
-0.000153797
-0.000154597
-0.000155195
-0.000155599
-0.000155805
-0.000155808
-0.000155622
-0.000155257
-0.000154707
-0.000153978
-0.000153075
-0.000151986
-0.000150704
-0.000149223
-0.00014754
-0.000145646
-0.000143537
-0.000141216
-0.000138679
-0.000135925
-0.000132964
-0.000129808
-0.000126458
-0.000122923
-0.000119214
-0.000115335
-0.000111295
-0.000107097
-0.000102742
-9.82296e-05
-9.35611e-05
-8.87291e-05
-8.37319e-05
-7.85808e-05
-7.32864e-05
-6.78502e-05
-6.22783e-05
-5.65828e-05
-5.07667e-05
-4.48265e-05
-3.87702e-05
-3.26156e-05
-2.63747e-05
-2.00574e-05
-1.36866e-05
-7.29135e-06
-8.85104e-07
5.53252e-06
1.1956e-05
1.83738e-05
2.47854e-05
3.12017e-05
3.76239e-05
4.40375e-05
5.04295e-05
5.67969e-05
6.31316e-05
6.94117e-05
7.56195e-05
8.1755e-05
8.78214e-05
9.38083e-05
9.97029e-05
0.000105509
0.000111241
0.000116908
0.000122508
0.000128058
0.000133592
0.000139139
0.00014471
0.000150304
0.000155933
0.000161604
0.000167299
0.000172979
0.000178613
0.000184196
0.000189729
0.000195198
0.000200588
0.000205901
0.000211156
0.000216365
0.000221522
0.000226626
0.000231693
0.000236742
0.000241774
0.00024677
0.000251714
0.000256606
0.000261444
0.000266202
0.000270842
0.000275347
0.000279722
0.000283978
0.000288107
0.000292098
0.000295956
0.000299711
0.000303387
0.000306978
0.000310456
0.000313801
0.000317012
0.000320093
0.000323036
0.000325827
0.000328462
0.000330954
0.000333303
0.000335491
0.000337489
0.000339288
0.000340912
0.000342393
0.000343744
0.000344957
0.000346016
0.000346916
0.000347658
0.000348233
0.000348628
0.000348838
0.000348884
0.0003488
0.000348609
0.00034831
0.000347891
0.000347347
0.000346695
0.000345944
0.000345083
0.000344072
0.000342879
0.000341497
0.000339953
0.000338296
0.000336567
0.000334606
0.000332232
-0.000124771
-0.000126722
-0.000128609
-0.000130428
-0.00013239
-0.000134385
-0.000136402
-0.000138477
-0.000140559
-0.000142589
-0.000144548
-0.000146393
-0.000148111
-0.000149697
-0.00015111
-0.000152347
-0.000153421
-0.000154313
-0.000155011
-0.000155527
-0.000155855
-0.000155983
-0.000155921
-0.000155681
-0.000155258
-0.000154656
-0.000153887
-0.000152938
-0.0001518
-0.000150479
-0.000148966
-0.000147245
-0.000145317
-0.000143178
-0.000140823
-0.000138255
-0.000135478
-0.000132497
-0.000129322
-0.000125957
-0.000122409
-0.000118686
-0.000114795
-0.000110737
-0.000106517
-0.000102139
-9.76045e-05
-9.29142e-05
-8.80688e-05
-8.30722e-05
-7.79308e-05
-7.26487e-05
-6.72344e-05
-6.17021e-05
-5.60545e-05
-5.02805e-05
-4.43787e-05
-3.83617e-05
-3.22387e-05
-2.60147e-05
-1.971e-05
-1.33569e-05
-6.97479e-06
-5.68794e-07
5.85061e-06
1.22665e-05
1.86758e-05
2.50894e-05
3.15094e-05
3.79232e-05
4.43209e-05
5.07031e-05
5.70645e-05
6.33848e-05
6.96454e-05
7.58472e-05
8.19978e-05
8.80903e-05
9.41074e-05
0.000100046
0.000105918
0.00011173
0.000117474
0.00012315
0.000128782
0.0001344
0.000140018
0.000145635
0.000151261
0.000156908
0.000162576
0.000168234
0.000173851
0.000179417
0.000184938
0.000190407
0.000195808
0.000201138
0.000206412
0.000211646
0.000216836
0.000221977
0.000227074
0.000232149
0.000237211
0.000242244
0.00024723
0.000252164
0.000257045
0.000261856
0.000266566
0.000271149
0.000275606
0.00027995
0.000284183
0.000288291
0.000292266
0.000296124
0.000299889
0.000303571
0.000307155
0.000310623
0.000313969
0.000317193
0.000320287
0.000323229
0.000326008
0.000328629
0.000331106
0.000333439
0.000335608
0.000337592
0.000339394
0.000341038
0.00034254
0.000343896
0.000345093
0.000346126
0.000347009
0.000347749
0.00034834
0.000348762
0.000349011