/*--------------------------------*- C++ -*----------------------------------*\
  =========                 |
  \\      /  F ield         | OpenFOAM: The Open Source CFD Toolbox
   \\    /   O peration     | Website:  https://openfoam.org
    \\  /    A nd           | Version:  7
     \\/     M anipulation  |
\*---------------------------------------------------------------------------*/
FoamFile
{
    version     2.0;
    format      ascii;
    class       volVectorField;
    location    "0.025";
    object      U;
}
// * * * * * * * * * * * * * * * * * * * * * * * * * * * * * * * * * * * * * //

dimensions      [0 1 -1 0 0 0 0];

internalField   nonuniform List<vector> 
51200
(
(-1.0542e-07 -1.82872e-07 0)
(4.71564e-07 -1.57999e-06 0)
(3.04179e-06 -2.31945e-06 0)
(5.6145e-06 -1.64443e-06 0)
(7.25063e-06 -8.25094e-07 0)
(7.7398e-06 -2.73919e-07 0)
(7.55257e-06 4.82977e-08 0)
(6.99627e-06 2.21199e-07 0)
(6.24442e-06 3.08909e-07 0)
(5.38313e-06 3.5762e-07 0)
(4.46454e-06 3.71645e-07 0)
(3.52089e-06 3.74433e-07 0)
(2.56298e-06 3.67036e-07 0)
(1.59436e-06 3.64731e-07 0)
(6.2625e-07 3.63398e-07 0)
(-3.46634e-07 3.54337e-07 0)
(-1.31018e-06 3.46325e-07 0)
(-2.26901e-06 3.3441e-07 0)
(-3.22428e-06 3.28796e-07 0)
(-4.16727e-06 3.27573e-07 0)
(-5.10735e-06 3.21752e-07 0)
(-6.03385e-06 3.13388e-07 0)
(-6.94535e-06 3.03976e-07 0)
(-7.84987e-06 2.94492e-07 0)
(-8.73796e-06 2.92231e-07 0)
(-9.61334e-06 2.90905e-07 0)
(-1.04796e-05 2.85702e-07 0)
(-1.13269e-05 2.8038e-07 0)
(-1.2161e-05 2.72451e-07 0)
(-1.29836e-05 2.6382e-07 0)
(-1.37873e-05 2.60436e-07 0)
(-1.45783e-05 2.57952e-07 0)
(-1.53572e-05 2.53295e-07 0)
(-1.61175e-05 2.50401e-07 0)
(-1.68653e-05 2.46271e-07 0)
(-1.76015e-05 2.38199e-07 0)
(-1.83198e-05 2.31326e-07 0)
(-1.90239e-05 2.24588e-07 0)
(-1.97159e-05 2.15481e-07 0)
(-2.03905e-05 2.09637e-07 0)
(-2.10505e-05 2.06881e-07 0)
(-2.16991e-05 2.00437e-07 0)
(-2.23316e-05 1.92106e-07 0)
(-2.29469e-05 1.85209e-07 0)
(-2.35492e-05 1.76759e-07 0)
(-2.41374e-05 1.68701e-07 0)
(-2.47081e-05 1.65519e-07 0)
(-2.5265e-05 1.6331e-07 0)
(-2.58094e-05 1.59014e-07 0)
(-2.63364e-05 1.56849e-07 0)
(-2.68476e-05 1.57756e-07 0)
(-2.73471e-05 1.57199e-07 0)
(-2.78316e-05 1.54258e-07 0)
(-2.8299e-05 1.50083e-07 0)
(-2.87521e-05 1.42095e-07 0)
(-2.91906e-05 1.29988e-07 0)
(-2.96111e-05 1.19984e-07 0)
(-3.00155e-05 1.15932e-07 0)
(-3.0407e-05 1.14576e-07 0)
(-3.07839e-05 1.12647e-07 0)
(-3.11437e-05 1.10064e-07 0)
(-3.14872e-05 1.06123e-07 0)
(-3.18151e-05 1.00565e-07 0)
(-3.21263e-05 9.60834e-08 0)
(-3.24201e-05 9.38238e-08 0)
(-3.26978e-05 9.00987e-08 0)
(-3.29588e-05 8.1854e-08 0)
(-3.3201e-05 7.13849e-08 0)
(-3.34235e-05 6.26322e-08 0)
(-3.36276e-05 5.65755e-08 0)
(-3.38137e-05 5.24434e-08 0)
(-3.39809e-05 4.98407e-08 0)
(-3.41291e-05 4.73775e-08 0)
(-3.42592e-05 4.2405e-08 0)
(-3.43713e-05 3.42571e-08 0)
(-3.44645e-05 2.5342e-08 0)
(-3.45386e-05 1.7874e-08 0)
(-3.45947e-05 1.18071e-08 0)
(-3.46337e-05 6.69416e-09 0)
(-3.46554e-05 3.08805e-09 0)
(-3.466e-05 6.76165e-10 0)
(-3.46482e-05 -2.73903e-09 0)
(-3.46204e-05 -8.43743e-09 0)
(-3.4576e-05 -1.48169e-08 0)
(-3.45147e-05 -2.00169e-08 0)
(-3.44368e-05 -2.44844e-08 0)
(-3.43426e-05 -2.92468e-08 0)
(-3.42317e-05 -3.35361e-08 0)
(-3.41038e-05 -3.61723e-08 0)
(-3.39595e-05 -3.83534e-08 0)
(-3.37991e-05 -4.2744e-08 0)
(-3.36219e-05 -4.9681e-08 0)
(-3.34269e-05 -5.63721e-08 0)
(-3.32149e-05 -6.05284e-08 0)
(-3.2987e-05 -6.3005e-08 0)
(-3.27435e-05 -6.61241e-08 0)
(-3.2483e-05 -7.08871e-08 0)
(-3.22053e-05 -7.66734e-08 0)
(-3.1911e-05 -8.26594e-08 0)
(-3.1601e-05 -8.83192e-08 0)
(-3.12751e-05 -9.30343e-08 0)
(-3.09331e-05 -9.66454e-08 0)
(-3.0575e-05 -1.00275e-07 0)
(-3.02012e-05 -1.05415e-07 0)
(-2.98115e-05 -1.12046e-07 0)
(-2.94053e-05 -1.18423e-07 0)
(-2.89829e-05 -1.23153e-07 0)
(-2.85451e-05 -1.26888e-07 0)
(-2.80925e-05 -1.3127e-07 0)
(-2.76247e-05 -1.36742e-07 0)
(-2.71415e-05 -1.42286e-07 0)
(-2.66433e-05 -1.46952e-07 0)
(-2.61311e-05 -1.50838e-07 0)
(-2.56056e-05 -1.54584e-07 0)
(-2.50664e-05 -1.58524e-07 0)
(-2.45134e-05 -1.62697e-07 0)
(-2.39471e-05 -1.67223e-07 0)
(-2.33681e-05 -1.72009e-07 0)
(-2.2777e-05 -1.76329e-07 0)
(-2.2174e-05 -1.79434e-07 0)
(-2.15594e-05 -1.81538e-07 0)
(-2.0934e-05 -1.83739e-07 0)
(-2.02984e-05 -1.86913e-07 0)
(-1.96526e-05 -1.90816e-07 0)
(-1.89966e-05 -1.94402e-07 0)
(-1.83306e-05 -1.97023e-07 0)
(-1.76553e-05 -1.98925e-07 0)
(-1.69712e-05 -2.00562e-07 0)
(-1.62788e-05 -2.02145e-07 0)
(-1.55781e-05 -2.03845e-07 0)
(-1.48692e-05 -2.05853e-07 0)
(-1.41528e-05 -2.08095e-07 0)
(-1.34297e-05 -2.10066e-07 0)
(-1.27004e-05 -2.11158e-07 0)
(-1.19656e-05 -2.11346e-07 0)
(-1.12264e-05 -2.11284e-07 0)
(-1.04841e-05 -2.11565e-07 0)
(-9.7404e-06 -2.12046e-07 0)
(-8.99686e-06 -2.12019e-07 0)
(-8.25495e-06 -2.109e-07 0)
(-7.51663e-06 -2.08604e-07 0)
(-6.78463e-06 -2.0541e-07 0)
(-6.06201e-06 -2.01681e-07 0)
(-5.35183e-06 -1.97588e-07 0)
(-4.65753e-06 -1.92892e-07 0)
(-3.98345e-06 -1.86876e-07 0)
(-3.33499e-06 -1.78609e-07 0)
(-2.71819e-06 -1.67519e-07 0)
(-2.13913e-06 -1.53768e-07 0)
(-1.60401e-06 -1.38033e-07 0)
(-1.11963e-06 -1.20811e-07 0)
(-6.93809e-07 -1.01846e-07 0)
(-3.35067e-07 -8.02283e-08 0)
(-5.1761e-08 -5.50655e-08 0)
(1.48875e-07 -2.62631e-08 0)
(2.6193e-07 4.91876e-09 0)
(2.86653e-07 3.55019e-08 0)
(2.31418e-07 5.96638e-08 0)
(1.26007e-07 6.62117e-08 0)
(3.47723e-08 3.68845e-08 0)
(-1.45977e-06 2.10111e-07 0)
(-1.73911e-06 -2.09961e-06 0)
(-4.46418e-07 -4.34604e-06 0)
(1.76396e-06 -3.39134e-06 0)
(3.60574e-06 -1.68636e-06 0)
(4.38426e-06 -3.42961e-07 0)
(4.3327e-06 5.28682e-07 0)
(3.6676e-06 1.05646e-06 0)
(2.57216e-06 1.3708e-06 0)
(1.16056e-06 1.55308e-06 0)
(-4.74961e-07 1.66689e-06 0)
(-2.28207e-06 1.7301e-06 0)
(-4.22254e-06 1.76766e-06 0)
(-6.25827e-06 1.79495e-06 0)
(-8.38415e-06 1.81056e-06 0)
(-1.05617e-05 1.82285e-06 0)
(-1.27873e-05 1.8228e-06 0)
(-1.50477e-05 1.81445e-06 0)
(-1.73253e-05 1.80863e-06 0)
(-1.96273e-05 1.79774e-06 0)
(-2.19294e-05 1.78691e-06 0)
(-2.42284e-05 1.77262e-06 0)
(-2.65269e-05 1.748e-06 0)
(-2.88075e-05 1.72612e-06 0)
(-3.10763e-05 1.70477e-06 0)
(-3.33314e-05 1.68113e-06 0)
(-3.55574e-05 1.66104e-06 0)
(-3.77624e-05 1.63685e-06 0)
(-3.99435e-05 1.60754e-06 0)
(-4.20917e-05 1.5809e-06 0)
(-4.42161e-05 1.55385e-06 0)
(-4.63124e-05 1.52584e-06 0)
(-4.8373e-05 1.50141e-06 0)
(-5.04049e-05 1.47606e-06 0)
(-5.24061e-05 1.44844e-06 0)
(-5.437e-05 1.42236e-06 0)
(-5.63016e-05 1.39556e-06 0)
(-5.82008e-05 1.36583e-06 0)
(-6.00613e-05 1.33629e-06 0)
(-6.18869e-05 1.30899e-06 0)
(-6.368e-05 1.28093e-06 0)
(-6.54342e-05 1.25287e-06 0)
(-6.71496e-05 1.22544e-06 0)
(-6.88294e-05 1.19574e-06 0)
(-7.04702e-05 1.16353e-06 0)
(-7.20704e-05 1.13332e-06 0)
(-7.36336e-05 1.10511e-06 0)
(-7.51581e-05 1.07543e-06 0)
(-7.66411e-05 1.04576e-06 0)
(-7.80852e-05 1.01788e-06 0)
(-7.94909e-05 9.89816e-07 0)
(-8.08561e-05 9.61675e-07 0)
(-8.21811e-05 9.35335e-07 0)
(-8.34655e-05 9.08712e-07 0)
(-8.47077e-05 8.78374e-07 0)
(-8.59071e-05 8.45217e-07 0)
(-8.70641e-05 8.12346e-07 0)
(-8.81789e-05 7.80651e-07 0)
(-8.92515e-05 7.50043e-07 0)
(-9.02808e-05 7.20869e-07 0)
(-9.12651e-05 6.9173e-07 0)
(-9.22038e-05 6.59822e-07 0)
(-9.30972e-05 6.25552e-07 0)
(-9.39452e-05 5.92638e-07 0)
(-9.47468e-05 5.61988e-07 0)
(-9.55013e-05 5.30371e-07 0)
(-9.62082e-05 4.95751e-07 0)
(-9.68664e-05 4.59127e-07 0)
(-9.74755e-05 4.21494e-07 0)
(-9.80361e-05 3.83301e-07 0)
(-9.85483e-05 3.46265e-07 0)
(-9.90111e-05 3.11918e-07 0)
(-9.94233e-05 2.78752e-07 0)
(-9.97852e-05 2.43799e-07 0)
(-0.000100097 2.06749e-07 0)
(-0.000100359 1.69632e-07 0)
(-0.000100569 1.33081e-07 0)
(-0.000100729 9.62325e-08 0)
(-0.00010084 5.97619e-08 0)
(-0.0001009 2.55131e-08 0)
(-0.00010091 -6.7814e-09 0)
(-0.000100869 -3.95599e-08 0)
(-0.000100778 -7.39153e-08 0)
(-0.000100638 -1.08344e-07 0)
(-0.000100447 -1.41806e-07 0)
(-0.000100206 -1.75506e-07 0)
(-9.99168e-05 -2.10258e-07 0)
(-9.95789e-05 -2.44572e-07 0)
(-9.91918e-05 -2.77007e-07 0)
(-9.87557e-05 -3.08591e-07 0)
(-9.82711e-05 -3.41385e-07 0)
(-9.77379e-05 -3.75689e-07 0)
(-9.71557e-05 -4.10022e-07 0)
(-9.65253e-05 -4.4333e-07 0)
(-9.58484e-05 -4.7585e-07 0)
(-9.51256e-05 -5.07949e-07 0)
(-9.43558e-05 -5.3972e-07 0)
(-9.35383e-05 -5.71739e-07 0)
(-9.26746e-05 -6.04681e-07 0)
(-9.17664e-05 -6.3801e-07 0)
(-9.08139e-05 -6.70136e-07 0)
(-8.98161e-05 -7.00405e-07 0)
(-8.87733e-05 -7.30212e-07 0)
(-8.76868e-05 -7.61284e-07 0)
(-8.65572e-05 -7.93455e-07 0)
(-8.53842e-05 -8.25145e-07 0)
(-8.41679e-05 -8.55504e-07 0)
(-8.29094e-05 -8.85142e-07 0)
(-8.16097e-05 -9.14852e-07 0)
(-8.02686e-05 -9.44446e-07 0)
(-7.88854e-05 -9.73299e-07 0)
(-7.7461e-05 -1.00143e-06 0)
(-7.59972e-05 -1.02922e-06 0)
(-7.44955e-05 -1.05644e-06 0)
(-7.2956e-05 -1.08255e-06 0)
(-7.13783e-05 -1.10774e-06 0)
(-6.97638e-05 -1.13295e-06 0)
(-6.81147e-05 -1.15857e-06 0)
(-6.64321e-05 -1.18361e-06 0)
(-6.47162e-05 -1.20674e-06 0)
(-6.29669e-05 -1.22802e-06 0)
(-6.11851e-05 -1.24874e-06 0)
(-5.93727e-05 -1.26982e-06 0)
(-5.75306e-05 -1.29086e-06 0)
(-5.5659e-05 -1.31104e-06 0)
(-5.37583e-05 -1.33016e-06 0)
(-5.18304e-05 -1.34867e-06 0)
(-4.9877e-05 -1.36658e-06 0)
(-4.78989e-05 -1.38321e-06 0)
(-4.58961e-05 -1.39827e-06 0)
(-4.38698e-05 -1.41249e-06 0)
(-4.18225e-05 -1.42661e-06 0)
(-3.97569e-05 -1.4402e-06 0)
(-3.76752e-05 -1.45184e-06 0)
(-3.55784e-05 -1.46066e-06 0)
(-3.34687e-05 -1.46706e-06 0)
(-3.13499e-05 -1.47171e-06 0)
(-2.92264e-05 -1.47425e-06 0)
(-2.71019e-05 -1.47336e-06 0)
(-2.49803e-05 -1.46796e-06 0)
(-2.28674e-05 -1.45787e-06 0)
(-2.0771e-05 -1.44308e-06 0)
(-1.87005e-05 -1.42278e-06 0)
(-1.66651e-05 -1.39539e-06 0)
(-1.46743e-05 -1.35947e-06 0)
(-1.27394e-05 -1.31411e-06 0)
(-1.08745e-05 -1.2584e-06 0)
(-9.0955e-06 -1.19093e-06 0)
(-7.41913e-06 -1.1102e-06 0)
(-5.8624e-06 -1.01537e-06 0)
(-4.44389e-06 -9.06428e-07 0)
(-3.18373e-06 -7.83499e-07 0)
(-2.10189e-06 -6.463e-07 0)
(-1.21569e-06 -4.9481e-07 0)
(-5.37658e-07 -3.31163e-07 0)
(-7.35829e-08 -1.62054e-07 0)
(1.8012e-07 -1.01188e-09 0)
(2.44078e-07 1.28652e-07 0)
(1.69844e-07 1.88216e-07 0)
(5.46153e-08 1.23266e-07 0)
(-2.22938e-06 2.59497e-06 0)
(-4.14614e-06 -9.34424e-07 0)
(-5.14476e-06 -5.18185e-06 0)
(-4.79779e-06 -4.68366e-06 0)
(-4.07266e-06 -2.60733e-06 0)
(-3.82611e-06 -6.16944e-07 0)
(-4.12722e-06 8.92308e-07 0)
(-4.95857e-06 1.96178e-06 0)
(-6.28393e-06 2.70059e-06 0)
(-8.02317e-06 3.2271e-06 0)
(-1.01086e-05 3.60922e-06 0)
(-1.24838e-05 3.88892e-06 0)
(-1.50894e-05 4.10804e-06 0)
(-1.79012e-05 4.26855e-06 0)
(-2.08682e-05 4.3998e-06 0)
(-2.39718e-05 4.50023e-06 0)
(-2.71809e-05 4.56667e-06 0)
(-3.04637e-05 4.62016e-06 0)
(-3.3817e-05 4.64407e-06 0)
(-3.72133e-05 4.65888e-06 0)
(-4.06396e-05 4.66441e-06 0)
(-4.40897e-05 4.64955e-06 0)
(-4.75394e-05 4.62971e-06 0)
(-5.09877e-05 4.59936e-06 0)
(-5.44312e-05 4.55684e-06 0)
(-5.78519e-05 4.51689e-06 0)
(-6.12543e-05 4.47e-06 0)
(-6.46318e-05 4.4158e-06 0)
(-6.79719e-05 4.36352e-06 0)
(-7.12809e-05 4.30412e-06 0)
(-7.45546e-05 4.24015e-06 0)
(-7.77846e-05 4.17966e-06 0)
(-8.09759e-05 4.11495e-06 0)
(-8.41249e-05 4.04734e-06 0)
(-8.72247e-05 3.98281e-06 0)
(-9.02793e-05 3.91593e-06 0)
(-9.32873e-05 3.84563e-06 0)
(-9.62428e-05 3.7767e-06 0)
(-9.91472e-05 3.70577e-06 0)
(-0.000102002 3.63089e-06 0)
(-0.000104802 3.55799e-06 0)
(-0.000107547 3.4852e-06 0)
(-0.000110239 3.40944e-06 0)
(-0.000112874 3.33347e-06 0)
(-0.000115449 3.25704e-06 0)
(-0.000117968 3.17855e-06 0)
(-0.000120428 3.09967e-06 0)
(-0.000122826 3.02142e-06 0)
(-0.000125164 2.94113e-06 0)
(-0.000127439 2.85919e-06 0)
(-0.000129651 2.77737e-06 0)
(-0.0001318 2.69508e-06 0)
(-0.000133886 2.61279e-06 0)
(-0.000135906 2.53169e-06 0)
(-0.000137862 2.45015e-06 0)
(-0.000139751 2.36645e-06 0)
(-0.000141571 2.28114e-06 0)
(-0.000143321 2.19472e-06 0)
(-0.000145004 2.10708e-06 0)
(-0.000146617 2.01899e-06 0)
(-0.000148158 1.93045e-06 0)
(-0.000149628 1.83972e-06 0)
(-0.000151025 1.74637e-06 0)
(-0.000152349 1.65256e-06 0)
(-0.000153599 1.55962e-06 0)
(-0.000154777 1.46634e-06 0)
(-0.00015588 1.37161e-06 0)
(-0.000156906 1.27541e-06 0)
(-0.000157856 1.17725e-06 0)
(-0.00015873 1.07661e-06 0)
(-0.000159527 9.74826e-07 0)
(-0.000160246 8.73948e-07 0)
(-0.000160887 7.73901e-07 0)
(-0.00016145 6.73143e-07 0)
(-0.000161935 5.71661e-07 0)
(-0.00016234 4.70654e-07 0)
(-0.000162666 3.69882e-07 0)
(-0.000162911 2.68118e-07 0)
(-0.000163078 1.65882e-07 0)
(-0.000163163 6.50878e-08 0)
(-0.000163168 -3.39481e-08 0)
(-0.000163094 -1.32763e-07 0)
(-0.00016294 -2.3191e-07 0)
(-0.000162705 -3.30259e-07 0)
(-0.000162389 -4.27489e-07 0)
(-0.000161994 -5.25007e-07 0)
(-0.00016152 -6.23593e-07 0)
(-0.000160967 -7.22089e-07 0)
(-0.000160334 -8.19285e-07 0)
(-0.000159623 -9.1557e-07 0)
(-0.000158836 -1.01189e-06 0)
(-0.000157971 -1.10821e-06 0)
(-0.000157026 -1.20409e-06 0)
(-0.000156005 -1.29977e-06 0)
(-0.000154908 -1.39547e-06 0)
(-0.000153738 -1.49044e-06 0)
(-0.000152492 -1.58374e-06 0)
(-0.000151171 -1.67582e-06 0)
(-0.000149776 -1.76791e-06 0)
(-0.00014831 -1.86004e-06 0)
(-0.000146771 -1.95084e-06 0)
(-0.00014516 -2.03958e-06 0)
(-0.000143478 -2.12713e-06 0)
(-0.000141728 -2.21465e-06 0)
(-0.000139909 -2.30197e-06 0)
(-0.000138021 -2.38811e-06 0)
(-0.000136065 -2.47286e-06 0)
(-0.000134043 -2.55687e-06 0)
(-0.000131956 -2.64031e-06 0)
(-0.000129805 -2.72247e-06 0)
(-0.000127587 -2.80291e-06 0)
(-0.000125306 -2.88214e-06 0)
(-0.000122964 -2.96077e-06 0)
(-0.000120561 -3.03833e-06 0)
(-0.000118098 -3.11373e-06 0)
(-0.000115576 -3.18677e-06 0)
(-0.000112997 -3.25844e-06 0)
(-0.000110362 -3.32941e-06 0)
(-0.000107672 -3.39897e-06 0)
(-0.000104929 -3.46598e-06 0)
(-0.000102132 -3.5303e-06 0)
(-9.92841e-05 -3.59278e-06 0)
(-9.63871e-05 -3.654e-06 0)
(-9.34415e-05 -3.71354e-06 0)
(-9.0448e-05 -3.77075e-06 0)
(-8.74082e-05 -3.8258e-06 0)
(-8.43246e-05 -3.87932e-06 0)
(-8.11995e-05 -3.93104e-06 0)
(-7.80339e-05 -3.9798e-06 0)
(-7.48292e-05 -4.02488e-06 0)
(-7.15877e-05 -4.06678e-06 0)
(-6.8313e-05 -4.10641e-06 0)
(-6.50081e-05 -4.1435e-06 0)
(-6.16757e-05 -4.17645e-06 0)
(-5.83187e-05 -4.20364e-06 0)
(-5.49417e-05 -4.22457e-06 0)
(-5.15503e-05 -4.23913e-06 0)
(-4.81507e-05 -4.24621e-06 0)
(-4.47491e-05 -4.24371e-06 0)
(-4.13526e-05 -4.22971e-06 0)
(-3.79708e-05 -4.20294e-06 0)
(-3.46159e-05 -4.16198e-06 0)
(-3.13016e-05 -4.10422e-06 0)
(-2.80421e-05 -4.02594e-06 0)
(-2.4853e-05 -3.92363e-06 0)
(-2.17525e-05 -3.79485e-06 0)
(-1.87618e-05 -3.63761e-06 0)
(-1.59044e-05 -3.44937e-06 0)
(-1.3205e-05 -3.22689e-06 0)
(-1.06893e-05 -2.96741e-06 0)
(-8.38445e-06 -2.66963e-06 0)
(-6.31831e-06 -2.33378e-06 0)
(-4.51762e-06 -1.96155e-06 0)
(-3.00504e-06 -1.5569e-06 0)
(-1.79678e-06 -1.12859e-06 0)
(-9.00289e-07 -6.93914e-07 0)
(-3.10291e-07 -2.83049e-07 0)
(-1.12526e-09 5.59216e-08 0)
(8.4691e-08 2.50709e-07 0)
(4.0201e-08 2.09066e-07 0)
(-1.60684e-06 5.09284e-06 0)
(-3.46731e-06 1.43985e-06 0)
(-5.35566e-06 -4.20875e-06 0)
(-6.41752e-06 -4.51784e-06 0)
(-6.9861e-06 -2.55189e-06 0)
(-7.69266e-06 -2.7712e-07 0)
(-8.74631e-06 1.70244e-06 0)
(-1.02445e-05 3.26381e-06 0)
(-1.21942e-05 4.46851e-06 0)
(-1.45732e-05 5.40612e-06 0)
(-1.73487e-05 6.13909e-06 0)
(-2.04618e-05 6.73564e-06 0)
(-2.38789e-05 7.20452e-06 0)
(-2.75404e-05 7.588e-06 0)
(-3.1415e-05 7.89464e-06 0)
(-3.54724e-05 8.13271e-06 0)
(-3.96681e-05 8.32813e-06 0)
(-4.39846e-05 8.46563e-06 0)
(-4.83879e-05 8.5645e-06 0)
(-5.28531e-05 8.63063e-06 0)
(-5.73727e-05 8.66038e-06 0)
(-6.19196e-05 8.67078e-06 0)
(-6.64822e-05 8.66024e-06 0)
(-7.10517e-05 8.62355e-06 0)
(-7.56068e-05 8.57645e-06 0)
(-8.01458e-05 8.5138e-06 0)
(-8.46627e-05 8.4362e-06 0)
(-8.91438e-05 8.35617e-06 0)
(-9.35899e-05 8.26613e-06 0)
(-9.79961e-05 8.1663e-06 0)
(-0.000102352 8.06487e-06 0)
(-0.000106659 7.95668e-06 0)
(-0.000110915 7.84161e-06 0)
(-0.000115111 7.72621e-06 0)
(-0.00011925 7.60703e-06 0)
(-0.00012333 7.48178e-06 0)
(-0.000127345 7.35685e-06 0)
(-0.000131296 7.2299e-06 0)
(-0.000135183 7.09746e-06 0)
(-0.000139 6.96346e-06 0)
(-0.000142746 6.82791e-06 0)
(-0.000146422 6.68767e-06 0)
(-0.000150024 6.54632e-06 0)
(-0.000153552 6.40469e-06 0)
(-0.000157006 6.25949e-06 0)
(-0.000160381 6.11229e-06 0)
(-0.000163678 5.96499e-06 0)
(-0.000166895 5.81537e-06 0)
(-0.000170031 5.66398e-06 0)
(-0.000173084 5.51202e-06 0)
(-0.000176052 5.357e-06 0)
(-0.000178934 5.1985e-06 0)
(-0.000181729 5.03863e-06 0)
(-0.000184436 4.87719e-06 0)
(-0.000187055 4.71399e-06 0)
(-0.000189586 4.55068e-06 0)
(-0.000192025 4.38648e-06 0)
(-0.000194372 4.21907e-06 0)
(-0.000196624 4.04872e-06 0)
(-0.000198781 3.87718e-06 0)
(-0.000200842 3.70435e-06 0)
(-0.000202809 3.52912e-06 0)
(-0.000204677 3.35165e-06 0)
(-0.000206446 3.17223e-06 0)
(-0.000208115 2.99037e-06 0)
(-0.000209685 2.80634e-06 0)
(-0.000211155 2.62151e-06 0)
(-0.000212524 2.43619e-06 0)
(-0.000213792 2.24892e-06 0)
(-0.000214958 2.05893e-06 0)
(-0.00021602 1.86732e-06 0)
(-0.000216977 1.67491e-06 0)
(-0.000217829 1.48121e-06 0)
(-0.000218578 1.28613e-06 0)
(-0.00021922 1.09095e-06 0)
(-0.000219756 8.96456e-07 0)
(-0.000220187 7.01795e-07 0)
(-0.000220512 5.0637e-07 0)
(-0.00022073 3.11006e-07 0)
(-0.000220839 1.16375e-07 0)
(-0.00022084 -7.80047e-08 0)
(-0.000220735 -2.72452e-07 0)
(-0.000220522 -4.66201e-07 0)
(-0.000220201 -6.58674e-07 0)
(-0.000219772 -8.50494e-07 0)
(-0.000219238 -1.04232e-06 0)
(-0.000218598 -1.2337e-06 0)
(-0.00021785 -1.42421e-06 0)
(-0.000216995 -1.61454e-06 0)
(-0.000216036 -1.80515e-06 0)
(-0.000214972 -1.99488e-06 0)
(-0.000213804 -2.1824e-06 0)
(-0.000212532 -2.36821e-06 0)
(-0.000211156 -2.55398e-06 0)
(-0.000209679 -2.73995e-06 0)
(-0.000208099 -2.9245e-06 0)
(-0.000206418 -3.10642e-06 0)
(-0.000204638 -3.28624e-06 0)
(-0.000202759 -3.46486e-06 0)
(-0.000200783 -3.64196e-06 0)
(-0.000198708 -3.81679e-06 0)
(-0.000196537 -3.98961e-06 0)
(-0.000194271 -4.16123e-06 0)
(-0.000191912 -4.33148e-06 0)
(-0.00018946 -4.49945e-06 0)
(-0.000186916 -4.66493e-06 0)
(-0.000184281 -4.82884e-06 0)
(-0.000181558 -4.99181e-06 0)
(-0.000178746 -5.15305e-06 0)
(-0.000175848 -5.31134e-06 0)
(-0.000172863 -5.46662e-06 0)
(-0.000169794 -5.61987e-06 0)
(-0.000166644 -5.7715e-06 0)
(-0.000163411 -5.92069e-06 0)
(-0.000160097 -6.06643e-06 0)
(-0.000156704 -6.20864e-06 0)
(-0.000153235 -6.34793e-06 0)
(-0.000149692 -6.48448e-06 0)
(-0.000146074 -6.61767e-06 0)
(-0.000142383 -6.74709e-06 0)
(-0.000138621 -6.87312e-06 0)
(-0.000134791 -6.99626e-06 0)
(-0.000130894 -7.11618e-06 0)
(-0.000126932 -7.2321e-06 0)
(-0.000122905 -7.34371e-06 0)
(-0.000118817 -7.45145e-06 0)
(-0.000114671 -7.5558e-06 0)
(-0.000110468 -7.65634e-06 0)
(-0.000106209 -7.75186e-06 0)
(-0.000101899 -7.8415e-06 0)
(-9.75402e-05 -7.92534e-06 0)
(-9.3138e-05 -8.00344e-06 0)
(-8.86949e-05 -8.07495e-06 0)
(-8.42139e-05 -8.13809e-06 0)
(-7.97001e-05 -8.19106e-06 0)
(-7.51606e-05 -8.23252e-06 0)
(-7.0603e-05 -8.26106e-06 0)
(-6.60349e-05 -8.27428e-06 0)
(-6.14647e-05 -8.26887e-06 0)
(-5.69033e-05 -8.24153e-06 0)
(-5.23639e-05 -8.18938e-06 0)
(-4.78615e-05 -8.10909e-06 0)
(-4.34127e-05 -7.99581e-06 0)
(-3.90362e-05 -7.84355e-06 0)
(-3.47536e-05 -7.64649e-06 0)
(-3.05896e-05 -7.39995e-06 0)
(-2.65709e-05 -7.09989e-06 0)
(-2.27261e-05 -6.74193e-06 0)
(-1.90852e-05 -6.32119e-06 0)
(-1.56803e-05 -5.8334e-06 0)
(-1.25454e-05 -5.27634e-06 0)
(-9.71425e-06 -4.65068e-06 0)
(-7.21783e-06 -3.96068e-06 0)
(-5.08223e-06 -3.21572e-06 0)
(-3.32705e-06 -2.43348e-06 0)
(-1.96239e-06 -1.64427e-06 0)
(-9.83925e-07 -8.96566e-07 0)
(-3.6597e-07 -2.63081e-07 0)
(-5.69738e-08 1.54396e-07 0)
(1.2563e-08 2.3255e-07 0)
(-8.45757e-07 6.82318e-06 0)
(-2.08609e-06 3.83455e-06 0)
(-4.11027e-06 -2.29182e-06 0)
(-5.9626e-06 -3.13665e-06 0)
(-7.51093e-06 -1.32282e-06 0)
(-9.16501e-06 1.10666e-06 0)
(-1.10953e-05 3.41405e-06 0)
(-1.34119e-05 5.39211e-06 0)
(-1.6156e-05 7.03679e-06 0)
(-1.93314e-05 8.38106e-06 0)
(-2.29012e-05 9.50028e-06 0)
(-2.68486e-05 1.04198e-05 0)
(-3.11205e-05 1.11904e-05 0)
(-3.56737e-05 1.18264e-05 0)
(-4.04741e-05 1.23395e-05 0)
(-4.54709e-05 1.27611e-05 0)
(-5.06435e-05 1.30888e-05 0)
(-5.59542e-05 1.33432e-05 0)
(-6.13672e-05 1.35349e-05 0)
(-6.6867e-05 1.36602e-05 0)
(-7.24197e-05 1.37371e-05 0)
(-7.80087e-05 1.37731e-05 0)
(-8.36243e-05 1.37661e-05 0)
(-8.92414e-05 1.37336e-05 0)
(-9.48501e-05 1.36739e-05 0)
(-0.000100442 1.35857e-05 0)
(-0.000106001 1.3482e-05 0)
(-0.000111522 1.33611e-05 0)
(-0.000117002 1.32233e-05 0)
(-0.000122428 1.30779e-05 0)
(-0.000127799 1.29225e-05 0)
(-0.000133113 1.2755e-05 0)
(-0.00013836 1.25832e-05 0)
(-0.000143538 1.24048e-05 0)
(-0.000148647 1.22172e-05 0)
(-0.00015368 1.20257e-05 0)
(-0.000158635 1.1829e-05 0)
(-0.000163514 1.1626e-05 0)
(-0.000168312 1.14198e-05 0)
(-0.000173024 1.12107e-05 0)
(-0.000177652 1.09955e-05 0)
(-0.000182193 1.07758e-05 0)
(-0.000186641 1.05528e-05 0)
(-0.000191 1.03249e-05 0)
(-0.000195266 1.00939e-05 0)
(-0.000199436 9.8598e-06 0)
(-0.000203509 9.62182e-06 0)
(-0.000207483 9.38038e-06 0)
(-0.000211356 9.13663e-06 0)
(-0.000215128 8.89044e-06 0)
(-0.000218797 8.64132e-06 0)
(-0.000222359 8.38937e-06 0)
(-0.000225814 8.13345e-06 0)
(-0.00022916 7.87222e-06 0)
(-0.000232394 7.60697e-06 0)
(-0.000235517 7.3396e-06 0)
(-0.000238528 7.06994e-06 0)
(-0.000241425 6.79757e-06 0)
(-0.000244206 6.52267e-06 0)
(-0.000246868 6.24438e-06 0)
(-0.000249412 5.96209e-06 0)
(-0.000251837 5.67726e-06 0)
(-0.000254142 5.39103e-06 0)
(-0.000256325 5.10224e-06 0)
(-0.000258385 4.80946e-06 0)
(-0.000260321 4.51317e-06 0)
(-0.000262131 4.21427e-06 0)
(-0.000263816 3.91267e-06 0)
(-0.000265377 3.60859e-06 0)
(-0.000266812 3.30324e-06 0)
(-0.000268118 2.99703e-06 0)
(-0.000269296 2.68881e-06 0)
(-0.000270346 2.37799e-06 0)
(-0.000271265 2.06557e-06 0)
(-0.000272053 1.75234e-06 0)
(-0.000272711 1.4379e-06 0)
(-0.000273238 1.12232e-06 0)
(-0.000273635 8.07029e-07 0)
(-0.000273899 4.92888e-07 0)
(-0.000274031 1.78846e-07 0)
(-0.000274031 -1.36023e-07 0)
(-0.000273899 -4.50794e-07 0)
(-0.000273633 -7.64367e-07 0)
(-0.000273234 -1.07735e-06 0)
(-0.000272704 -1.39068e-06 0)
(-0.000272043 -1.7036e-06 0)
(-0.00027125 -2.01449e-06 0)
(-0.000270325 -2.32337e-06 0)
(-0.000269271 -2.63189e-06 0)
(-0.000268087 -2.94067e-06 0)
(-0.000266772 -3.24835e-06 0)
(-0.000265328 -3.55359e-06 0)
(-0.000263756 -3.85657e-06 0)
(-0.000262059 -4.1579e-06 0)
(-0.000260235 -4.4573e-06 0)
(-0.000258284 -4.75421e-06 0)
(-0.000256208 -5.0488e-06 0)
(-0.000254008 -5.34136e-06 0)
(-0.000251688 -5.63123e-06 0)
(-0.000249245 -5.91734e-06 0)
(-0.000246682 -6.19976e-06 0)
(-0.000244 -6.47972e-06 0)
(-0.000241201 -6.75788e-06 0)
(-0.000238286 -7.03341e-06 0)
(-0.000235255 -7.30518e-06 0)
(-0.000232111 -7.5733e-06 0)
(-0.000228856 -7.83867e-06 0)
(-0.000225491 -8.10142e-06 0)
(-0.000222016 -8.36079e-06 0)
(-0.000218434 -8.61617e-06 0)
(-0.000214746 -8.86771e-06 0)
(-0.000210955 -9.11561e-06 0)
(-0.000207062 -9.35942e-06 0)
(-0.000203068 -9.59843e-06 0)
(-0.000198974 -9.83265e-06 0)
(-0.000194783 -1.00626e-05 0)
(-0.000190497 -1.02882e-05 0)
(-0.000186119 -1.05086e-05 0)
(-0.00018165 -1.07231e-05 0)
(-0.00017709 -1.09321e-05 0)
(-0.000172444 -1.11363e-05 0)
(-0.000167713 -1.13358e-05 0)
(-0.000162899 -1.153e-05 0)
(-0.000158003 -1.17181e-05 0)
(-0.000153029 -1.19e-05 0)
(-0.00014798 -1.2076e-05 0)
(-0.000142859 -1.22455e-05 0)
(-0.000137669 -1.24078e-05 0)
(-0.00013241 -1.25622e-05 0)
(-0.000127088 -1.27084e-05 0)
(-0.000121707 -1.2846e-05 0)
(-0.000116272 -1.29735e-05 0)
(-0.000110787 -1.30887e-05 0)
(-0.000105256 -1.31895e-05 0)
(-9.96862e-05 -1.32742e-05 0)
(-9.40857e-05 -1.33407e-05 0)
(-8.84639e-05 -1.33858e-05 0)
(-8.28301e-05 -1.34054e-05 0)
(-7.7195e-05 -1.33951e-05 0)
(-7.15724e-05 -1.33499e-05 0)
(-6.59786e-05 -1.32645e-05 0)
(-6.04315e-05 -1.31327e-05 0)
(-5.49502e-05 -1.29474e-05 0)
(-4.9557e-05 -1.27009e-05 0)
(-4.42779e-05 -1.23855e-05 0)
(-3.91426e-05 -1.19937e-05 0)
(-3.41827e-05 -1.15179e-05 0)
(-2.94308e-05 -1.0951e-05 0)
(-2.49211e-05 -1.02865e-05 0)
(-2.06901e-05 -9.51989e-06 0)
(-1.67764e-05 -8.64894e-06 0)
(-1.32179e-05 -7.67526e-06 0)
(-1.00495e-05 -6.6059e-06 0)
(-7.30058e-06 -5.45617e-06 0)
(-4.99416e-06 -4.25313e-06 0)
(-3.14374e-06 -3.04008e-06 0)
(-1.74834e-06 -1.88231e-06 0)
(-7.86562e-07 -8.74065e-07 0)
(-2.21558e-07 -1.41223e-07 0)
(-1.87338e-08 1.72317e-07 0)
(-3.52375e-07 7.58503e-06 0)
(-1.07774e-06 5.59236e-06 0)
(-2.99143e-06 -2.36806e-07 0)
(-5.26671e-06 -1.12108e-06 0)
(-7.51029e-06 7.07821e-07 0)
(-9.95348e-06 3.32501e-06 0)
(-1.26888e-05 5.95338e-06 0)
(-1.58067e-05 8.33238e-06 0)
(-1.93556e-05 1.03938e-05 0)
(-2.33264e-05 1.21689e-05 0)
(-2.77139e-05 1.36717e-05 0)
(-3.2479e-05 1.49518e-05 0)
(-3.75882e-05 1.60377e-05 0)
(-4.30095e-05 1.69432e-05 0)
(-4.86843e-05 1.77029e-05 0)
(-5.45868e-05 1.83163e-05 0)
(-6.0675e-05 1.88061e-05 0)
(-6.69095e-05 1.91928e-05 0)
(-7.32726e-05 1.94787e-05 0)
(-7.97238e-05 1.96829e-05 0)
(-8.6237e-05 1.98157e-05 0)
(-9.2798e-05 1.98777e-05 0)
(-9.93786e-05 1.9888e-05 0)
(-0.000105963 1.98528e-05 0)
(-0.000112545 1.97734e-05 0)
(-0.000119101 1.96636e-05 0)
(-0.000125622 1.95251e-05 0)
(-0.000132104 1.93569e-05 0)
(-0.000138531 1.91705e-05 0)
(-0.000144899 1.89673e-05 0)
(-0.000151205 1.87447e-05 0)
(-0.00015744 1.85115e-05 0)
(-0.000163599 1.82678e-05 0)
(-0.000169681 1.8011e-05 0)
(-0.000175679 1.77465e-05 0)
(-0.000181589 1.7475e-05 0)
(-0.000187412 1.71925e-05 0)
(-0.000193141 1.69025e-05 0)
(-0.000198774 1.66073e-05 0)
(-0.00020431 1.63042e-05 0)
(-0.000209747 1.5995e-05 0)
(-0.00021508 1.56809e-05 0)
(-0.000220308 1.53591e-05 0)
(-0.000225428 1.50313e-05 0)
(-0.000230439 1.46986e-05 0)
(-0.000235339 1.43599e-05 0)
(-0.000240125 1.40154e-05 0)
(-0.000244794 1.36658e-05 0)
(-0.000249344 1.33103e-05 0)
(-0.000253774 1.2949e-05 0)
(-0.000258082 1.25837e-05 0)
(-0.000262267 1.22147e-05 0)
(-0.000266326 1.18407e-05 0)
(-0.000270257 1.14617e-05 0)
(-0.000274057 1.10776e-05 0)
(-0.000277726 1.06876e-05 0)
(-0.000281261 1.02924e-05 0)
(-0.000284662 9.89361e-06 0)
(-0.000287927 9.49158e-06 0)
(-0.000291054 9.0846e-06 0)
(-0.000294041 8.6722e-06 0)
(-0.000296887 8.2558e-06 0)
(-0.00029959 7.83605e-06 0)
(-0.000302152 7.41251e-06 0)
(-0.00030457 6.98551e-06 0)
(-0.000306841 6.55553e-06 0)
(-0.000308966 6.12164e-06 0)
(-0.000310944 5.68286e-06 0)
(-0.000312773 5.24018e-06 0)
(-0.000314453 4.79544e-06 0)
(-0.000315983 4.34872e-06 0)
(-0.000317363 3.89923e-06 0)
(-0.000318592 3.44754e-06 0)
(-0.000319668 2.99487e-06 0)
(-0.000320591 2.54078e-06 0)
(-0.00032136 2.08415e-06 0)
(-0.000321977 1.62559e-06 0)
(-0.000322438 1.16697e-06 0)
(-0.000322745 7.08773e-07 0)
(-0.000322897 2.50058e-07 0)
(-0.000322896 -2.09206e-07 0)
(-0.000322738 -6.67693e-07 0)
(-0.000322425 -1.12492e-06 0)
(-0.000321957 -1.58193e-06 0)
(-0.000321335 -2.03925e-06 0)
(-0.000320558 -2.49583e-06 0)
(-0.000319626 -2.95058e-06 0)
(-0.000318541 -3.40354e-06 0)
(-0.000317304 -3.85502e-06 0)
(-0.000315915 -4.30459e-06 0)
(-0.000314373 -4.7518e-06 0)
(-0.000312679 -5.19692e-06 0)
(-0.000310835 -5.6402e-06 0)
(-0.000308843 -6.08066e-06 0)
(-0.000306703 -6.517e-06 0)
(-0.000304414 -6.94923e-06 0)
(-0.000301979 -7.37843e-06 0)
(-0.0002994 -7.80489e-06 0)
(-0.000296676 -8.2275e-06 0)
(-0.000293809 -8.64523e-06 0)
(-0.000290801 -9.05841e-06 0)
(-0.000287654 -9.46787e-06 0)
(-0.00028437 -9.87356e-06 0)
(-0.000280948 -1.02747e-05 0)
(-0.00027739 -1.06712e-05 0)
(-0.000273699 -1.10632e-05 0)
(-0.000269878 -1.1451e-05 0)
(-0.000265927 -1.18337e-05 0)
(-0.000261848 -1.22107e-05 0)
(-0.000257643 -1.25822e-05 0)
(-0.000253314 -1.29488e-05 0)
(-0.000248863 -1.331e-05 0)
(-0.000244293 -1.36646e-05 0)
(-0.000239603 -1.40119e-05 0)
(-0.000234797 -1.43523e-05 0)
(-0.000229878 -1.46865e-05 0)
(-0.000224847 -1.50145e-05 0)
(-0.000219707 -1.53351e-05 0)
(-0.000214459 -1.56479e-05 0)
(-0.000209106 -1.59532e-05 0)
(-0.000203652 -1.62514e-05 0)
(-0.000198099 -1.65422e-05 0)
(-0.000192448 -1.68246e-05 0)
(-0.000186701 -1.70986e-05 0)
(-0.000180864 -1.73644e-05 0)
(-0.000174938 -1.76219e-05 0)
(-0.000168928 -1.78699e-05 0)
(-0.000162835 -1.81068e-05 0)
(-0.000156665 -1.83319e-05 0)
(-0.000150421 -1.8545e-05 0)
(-0.000144109 -1.87454e-05 0)
(-0.000137734 -1.89305e-05 0)
(-0.000131299 -1.90972e-05 0)
(-0.000124813 -1.92428e-05 0)
(-0.000118282 -1.93648e-05 0)
(-0.000111717 -1.94598e-05 0)
(-0.000105127 -1.9523e-05 0)
(-9.85247e-05 -1.95487e-05 0)
(-9.19223e-05 -1.95306e-05 0)
(-8.53359e-05 -1.94624e-05 0)
(-7.87837e-05 -1.93363e-05 0)
(-7.22861e-05 -1.91429e-05 0)
(-6.58653e-05 -1.88723e-05 0)
(-5.9547e-05 -1.85144e-05 0)
(-5.33605e-05 -1.80597e-05 0)
(-4.73384e-05 -1.74978e-05 0)
(-4.15155e-05 -1.68182e-05 0)
(-3.59279e-05 -1.60103e-05 0)
(-3.06138e-05 -1.50659e-05 0)
(-2.56135e-05 -1.39796e-05 0)
(-2.09687e-05 -1.27499e-05 0)
(-1.67202e-05 -1.13804e-05 0)
(-1.29057e-05 -9.88138e-06 0)
(-9.55874e-06 -8.27389e-06 0)
(-6.70623e-06 -6.59344e-06 0)
(-4.36623e-06 -4.89484e-06 0)
(-2.5433e-06 -3.25782e-06 0)
(-1.22372e-06 -1.79425e-06 0)
(-3.90846e-07 -6.48618e-07 0)
(-4.91824e-08 2.35839e-08 0)
(-8.34514e-08 7.84895e-06 0)
(-5.29428e-07 6.9502e-06 0)
(-2.33787e-06 1.89866e-06 0)
(-4.84822e-06 1.33355e-06 0)
(-7.60434e-06 3.3754e-06 0)
(-1.06851e-05 6.27451e-06 0)
(-1.4119e-05 9.26429e-06 0)
(-1.79699e-05 1.20456e-05 0)
(-2.22544e-05 1.45448e-05 0)
(-2.69882e-05 1.67377e-05 0)
(-3.21412e-05 1.86494e-05 0)
(-3.76828e-05 2.03033e-05 0)
(-4.359e-05 2.17114e-05 0)
(-4.98066e-05 2.29157e-05 0)
(-5.63063e-05 2.39206e-05 0)
(-6.30441e-05 2.47468e-05 0)
(-6.99728e-05 2.54189e-05 0)
(-7.70691e-05 2.59402e-05 0)
(-8.42925e-05 2.63364e-05 0)
(-9.16131e-05 2.6625e-05 0)
(-9.90093e-05 2.68099e-05 0)
(-0.00010645 2.69105e-05 0)
(-0.000113913 2.69391e-05 0)
(-0.000121385 2.68974e-05 0)
(-0.000128846 2.68031e-05 0)
(-0.00013628 2.66645e-05 0)
(-0.000143681 2.64812e-05 0)
(-0.000151032 2.62659e-05 0)
(-0.000158323 2.60227e-05 0)
(-0.000165552 2.57505e-05 0)
(-0.000172707 2.54584e-05 0)
(-0.000179781 2.51488e-05 0)
(-0.000186773 2.48201e-05 0)
(-0.000193675 2.4477e-05 0)
(-0.000200482 2.41229e-05 0)
(-0.000207194 2.37553e-05 0)
(-0.000213804 2.33766e-05 0)
(-0.000220308 2.29883e-05 0)
(-0.000226705 2.2589e-05 0)
(-0.000232991 2.21796e-05 0)
(-0.000239162 2.17621e-05 0)
(-0.000245218 2.1336e-05 0)
(-0.000251155 2.09006e-05 0)