/*--------------------------------*- C++ -*----------------------------------*\
  =========                 |
  \\      /  F ield         | OpenFOAM: The Open Source CFD Toolbox
   \\    /   O peration     | Website:  https://openfoam.org
    \\  /    A nd           | Version:  7
     \\/     M anipulation  |
\*---------------------------------------------------------------------------*/
FoamFile
{
    version     2.0;
    format      ascii;
    class       volScalarField;
    location    "0.175";
    object      p;
}
// * * * * * * * * * * * * * * * * * * * * * * * * * * * * * * * * * * * * * //

dimensions      [0 2 -2 0 0 0 0];

internalField   nonuniform List<scalar> 
12800
(
3.00704e-06
0.000187215
-0.000897659
-0.00334185
-0.00689943
-0.0113236
-0.0163813
-0.0218593
-0.0275707
-0.0333554
-0.0390773
-0.0446209
-0.0498891
-0.0548003
-0.0592866
-0.0632918
-0.0667704
-0.0696855
-0.0720085
-0.0737173
-0.0747964
-0.0752353
-0.0750282
-0.0741735
-0.0726729
-0.0705316
-0.0677571
-0.0643595
-0.0603506
-0.055744
-0.0505546
-0.0447984
-0.0384924
-0.0316542
-0.024302
-0.0164542
-0.00812945
0.000653395
0.00987566
0.0195188
0.0295644
0.0399944
0.0507911
0.0619372
0.073416
0.0852111
0.0973069
0.109688
0.12234
0.135249
0.148402
0.161786
0.175388
0.189198
0.203204
0.217396
0.231764
0.2463
0.260994
0.275839
0.290827
0.305952
0.321206
0.336585
0.352081
0.36769
0.383408
0.39923
0.415151
0.431169
0.44728
0.46348
0.479766
0.496137
0.512588
0.529119
0.545726
0.562408
0.579162
0.595986
0.612878
0.629835
0.646856
0.663938
0.681079
0.698276
0.715525
0.732824
0.750169
0.767556
0.784981
0.80244
0.819927
0.837437
0.854963
0.872499
0.890037
0.90757
0.925089
0.942584
0.960045
0.977461
0.99482
1.01211
1.02932
1.04642
1.06342
1.08028
1.097
1.11355
1.12992
1.14608
1.16201
1.17769
1.1931
1.20821
1.223
1.23744
1.2515
1.26516
1.27839
1.29116
1.30344
1.31521
1.32644
1.33709
1.34714
1.35656
1.36533
1.37341
1.38079
1.38745
1.39335
1.39849
1.40284
1.4064
1.40916
1.4111
1.41223
1.41254
1.41206
1.41079
1.40875
1.40598
1.4025
1.39837
1.39364
1.38838
1.38266
1.3766
1.37029
1.36387
1.3575
1.35137
1.34568
1.34068
1.33663
1.33382
1.33254
1.3327
-0.000176656
6.37335e-06
-0.000996548
-0.00312874
-0.00616631
-0.00993369
-0.0142571
-0.0189661
-0.0239042
-0.028932
-0.0339276
-0.0387848
-0.0434125
-0.0477327
-0.0516797
-0.0551979
-0.0582416
-0.0607732
-0.0627625
-0.0641861
-0.0650262
-0.0652705
-0.0649106
-0.0639427
-0.0623662
-0.0601838
-0.0574006
-0.0540242
-0.0500642
-0.0455318
-0.0404398
-0.034802
-0.0286333
-0.0219493
-0.0147662
-0.00710083
0.00102996
0.00960899
0.0186191
0.028043
0.0378638
0.0480645
0.0586287
0.06954
0.0807827
0.0923414
0.104201
0.116347
0.128766
0.141444
0.154369
0.167527
0.180908
0.194499
0.208292
0.222274
0.236437
0.250772
0.265271
0.279924
0.294726
0.309668
0.324744
0.339948
0.355275
0.370718
0.386274
0.401936
0.417702
0.433567
0.449527
0.465579
0.481719
0.497945
0.514253
0.530641
0.547107
0.563646
0.580258
0.596939
0.613686
0.630498
0.647372
0.664304
0.681292
0.698332
0.715422
0.732557
0.749734
0.766948
0.784196
0.801471
0.818768
0.836082
0.853406
0.870732
0.888055
0.905364
0.922651
0.939908
0.957122
0.974284
0.991381
1.0084
1.02533
1.04215
1.05885
1.07542
1.09183
1.10807
1.12412
1.13995
1.15556
1.17091
1.18599
1.20076
1.21521
1.22932
1.24305
1.25638
1.26929
1.28175
1.29373
1.3052
1.31614
1.32653
1.33633
1.34552
1.35408
1.36199
1.36922
1.37574
1.38156
1.38664
1.39098
1.39456
1.39738
1.39943
1.40072
1.40126
1.40104
1.40009
1.39843
1.3961
1.39312
1.38955
1.38544
1.38086
1.37588
1.3706
1.36512
1.35958
1.3541
1.34884
1.344
1.33975
1.33631
1.33387
1.3327
1.33287
0.000907371
0.00100987
6.21705e-06
-0.00197774
-0.00472707
-0.00809943
-0.0119545
-0.0161507
-0.0205546
-0.0250449
-0.0295126
-0.0338614
-0.0380069
-0.0418759
-0.0454057
-0.0485428
-0.0512425
-0.0534673
-0.0551871
-0.0563776
-0.0570201
-0.0571008
-0.0566103
-0.055543
-0.0538967
-0.0516723
-0.0488734
-0.0455056
-0.0415769
-0.0370966
-0.0320759
-0.0265269
-0.0204629
-0.0138979
-0.00684663
0.000675595
0.00865321
0.0170704
0.0259111
0.0351594
0.0447993
0.054815
0.0651909
0.0759115
0.0869619
0.0983273
0.109993
0.121947
0.134173
0.146661
0.159396
0.172368
0.185565
0.198975
0.212589
0.226397
0.240388
0.254555
0.268888
0.283381
0.298024
0.312812
0.327737
0.342793
0.357975
0.373277
0.388694
0.404221
0.419853
0.435586
0.451417
0.467341
0.483355
0.499456
0.515641
0.531906
0.548248
0.564665
0.581153
0.59771
0.614333
0.631019
0.647765
0.664567
0.681423
0.698329
0.715281
0.732276
0.749308
0.766375
0.78347
0.800588
0.817724
0.834871
0.852024
0.869173
0.886313
0.903434
0.920527
0.937583
0.954592
0.971541
0.98842
1.00522
1.02191
1.0385
1.05496
1.07128
1.08744
1.10342
1.11921
1.13478
1.15012
1.16521
1.18001
1.19452
1.2087
1.22254
1.236
1.24907
1.26173
1.27393
1.28567
1.29691
1.30763
1.31781
1.32742
1.33643
1.34484
1.3526
1.35972
1.36615
1.3719
1.37695
1.38128
1.38489
1.38778
1.38993
1.39136
1.39207
1.39207
1.39138
1.39003
1.38804
1.38546
1.38232
1.37869
1.37462
1.37019
1.3655
1.36062
1.35569
1.35082
1.34616
1.34185
1.33807
1.33496
1.3327
1.33153
1.33159
0.00335245
0.00314489
0.00198831
-8.45701e-07
-0.00264352
-0.00581608
-0.00939855
-0.0132703
-0.0173166
-0.0214313
-0.0255179
-0.0294896
-0.0332692
-0.0367893
-0.039991
-0.0428239
-0.045245
-0.0472183
-0.048714
-0.0497081
-0.0501818
-0.0501206
-0.0495143
-0.0483565
-0.0466439
-0.0443762
-0.0415558
-0.038187
-0.0342765
-0.0298322
-0.024864
-0.0193827
-0.0134003
-0.00692954
1.60661e-05
0.00742246
0.0152752
0.0235595
0.0322604
0.0413629
0.050852
0.0607127
0.0709302
0.0814898
0.0923773
0.103579
0.11508
0.126868
0.13893
0.151254
0.163827
0.176637
0.189674
0.202927
0.216386
0.23004
0.243881
0.2579
0.272089
0.286439
0.300943
0.315594
0.330385
0.34531
0.360363
0.375538
0.390831
0.406235
0.421747
0.437362
0.453076
0.468885
0.484786
0.500774
0.516846
0.532999
0.549229
0.565534
0.58191
0.598355
0.614865
0.631436
0.648066
0.664751
0.681487
0.698271
0.7151
0.731967
0.74887
0.765803
0.782762
0.79974
0.816732
0.833732
0.850731
0.867725
0.884703
0.901658
0.918581
0.935462
0.95229
0.969054
0.985743
1.00234
1.01884
1.03523
1.05148
1.06759
1.08353
1.0993
1.11486
1.13021
1.14533
1.16018
1.17476
1.18904
1.203
1.21661
1.22986
1.24271
1.25515
1.26716
1.2787
1.28975
1.30029
1.3103
1.31976
1.32863
1.33691
1.34457
1.3516
1.35797
1.36368
1.3687
1.37304
1.37669
1.37963
1.38187
1.38342
1.38428
1.38447
1.384
1.3829
1.38119
1.37892
1.37613
1.37286
1.36919
1.36518
1.36092
1.35648
1.35198
1.34752
1.34323
1.33923
1.33568
1.3327
1.33044
1.32909
1.32879
0.00692179
0.00619404
0.00474074
0.00262951
-2.37334e-05
-0.00311305
-0.0065354
-0.0101891
-0.0139763
-0.0178053
-0.0215913
-0.0252571
-0.0287335
-0.0319588
-0.034879
-0.0374471
-0.0396226
-0.0413714
-0.042665
-0.0434799
-0.0437975
-0.0436034
-0.0428871
-0.0416415
-0.0398627
-0.0375495
-0.0347033
-0.0313276
-0.0274277
-0.0230107
-0.0180851
-0.0126608
-0.00674846
-0.000359825
0.00649271
0.0137962
0.0215371
0.0297017
0.038276
0.047246
0.0565974
0.066316
0.0763878
0.0867989
0.0975356
0.108584
0.119932
0.131567
0.143475
0.155645
0.168064
0.180723
0.193609
0.206713
0.220025
0.233534
0.247232
0.26111
0.27516
0.289374
0.303744
0.318263
0.332925
0.347723
0.362652
0.377705
0.392877
0.408163
0.423558
0.439058
0.454658
0.470354
0.486143
0.50202
0.517982
0.534025
0.550146
0.566341
0.582607
0.598941
0.615339
0.631798
0.648314
0.664884
0.681504
0.698169
0.714876
0.73162
0.748396
0.7652
0.782026
0.798868
0.815721
0.832578
0.849431
0.866273
0.883097
0.899893
0.916653
0.933367
0.950023
0.966612
0.983121
0.999539
1.01585
1.03204
1.0481
1.06401
1.07975
1.09532
1.11068
1.12582
1.14073
1.15537
1.16974
1.18382
1.19757
1.21098
1.22403
1.23669
1.24894
1.26075
1.27212
1.283
1.29339
1.30325
1.31257
1.32133
1.3295
1.33707
1.34403
1.35035
1.35602
1.36104
1.36539
1.36907
1.37207
1.3744
1.37606
1.37707
1.37742
1.37715
1.37627
1.37481
1.37282
1.37032
1.36738
1.36404
1.36037
1.35645
1.35235
1.34818
1.34401
1.33997
1.33617
1.33271
1.32972
1.32733
1.32564
1.32474
0.0113794
0.00998981
0.00812781
0.00579582
0.00303236
-7.33069e-05
-0.00343274
-0.00696148
-0.0105773
-0.0142016
-0.0177608
-0.0211874
-0.0244197
-0.0274024
-0.0300864
-0.0324286
-0.0343917
-0.0359438
-0.0370579
-0.0377118
-0.0378875
-0.0375709
-0.0367515
-0.0354221
-0.0335785
-0.0312188
-0.0283438
-0.0249561
-0.0210603
-0.0166626
-0.0117706
-0.0063931
-0.000539893
0.00577827
0.0125499
0.0197631
0.0274051
0.0354632
0.0439243
0.052775
0.062002
0.0715917
0.0815309
0.0918063
0.102405
0.113314
0.12452
0.136012
0.147778
0.159805
0.172082
0.184599
0.197344
0.210309
0.223482
0.236854
0.250417
0.264162
0.278081
0.292165
0.306408
0.320802
0.33534
0.350017
0.364826
0.379761
0.394817
0.409989
0.425271
0.440659
0.456149
0.471736
0.487416
0.503186
0.51904
0.534977
0.550991
0.567079
0.583238
0.599464
0.615754
0.632103
0.648509
0.664966
0.681472
0.698022
0.714611
0.731235
0.747889
0.764568
0.781267
0.797979
0.814698
0.831417
0.84813
0.864829
0.881505
0.898151
0.914756
0.931312
0.947807
0.964231
0.980571
0.996817
1.01295
1.02897
1.04485
1.06057
1.07613
1.0915
1.10668
1.12163
1.13635
1.1508
1.16499
1.17887
1.19244
1.20566
1.21853
1.23102
1.2431
1.25475
1.26596
1.2767
1.28695
1.29668
1.30589
1.31454
1.32262
1.33012
1.33702
1.3433
1.34895
1.35397
1.35833
1.36205
1.36512
1.36753
1.3693
1.37043
1.37094
1.37084
1.37016
1.36892
1.36716
1.36491
1.36223
1.35917
1.35577
1.35212
1.34828
1.34434
1.34037
1.33648
1.33274
1.32927
1.32617
1.32352
1.32137
1.31972
0.016504
0.0143674
0.0120164
0.00938423
0.00642731
0.0032201
-0.000161166
-0.00364754
-0.00717084
-0.0106646
-0.0140659
-0.0173159
-0.0203607
-0.0231512
-0.0256435
-0.0277986
-0.0295825
-0.0309661
-0.0319242
-0.0324362
-0.032485
-0.0320573
-0.031143
-0.029735
-0.0278289
-0.0254226
-0.0225165
-0.0191127
-0.0152152
-0.0108294
-0.00596226
-0.000621767
0.00518305
0.0114423
0.0181452
0.0252808
0.0328371
0.0408022
0.0491636
0.0579088
0.0670251
0.0764997
0.08632
0.0964732
0.106947
0.117729
0.128807
0.140169
0.151804
0.1637
0.175846
0.188232
0.200848
0.213682
0.226727
0.239972
0.253409
0.267029
0.280825
0.294788
0.30891
0.323186
0.337608
0.35217
0.366865
0.381688
0.396634
0.411696
0.426871
0.442152
0.457537
0.473019
0.488595
0.50426
0.520012
0.535845
0.551756
0.567741
0.583797
0.599919
0.616104
0.632347
0.648646
0.664996
0.681392
0.697831
0.714307
0.730816
0.747353
0.763913
0.780489
0.797077
0.813669
0.830258
0.846839
0.863402
0.879939
0.896443
0.912904
0.929312
0.945656
0.961926
0.97811
0.994197
1.01017
1.02602
1.04173
1.05729
1.07268
1.08789
1.10289
1.11767
1.13221
1.1465
1.16051
1.17423
1.18763
1.2007
1.21341
1.22574
1.23767
1.24919
1.26026
1.27087
1.281
1.29063
1.29974
1.30831
1.31632
1.32376
1.33062
1.33687
1.34251
1.34753
1.35192
1.35568
1.35881
1.3613
1.36317
1.36441
1.36506
1.36511
1.3646
1.36354
1.36198
1.35994
1.35747
1.35462
1.35143
1.34798
1.34432
1.34052
1.33666
1.33281
1.32906
1.32548
1.32216
1.31918
1.31648
1.31398
0.0220946
0.0191652
0.0162716
0.0132798
0.0100644
0.00668741
0.0032149
-0.0002979
-0.00379545
-0.00722231
-0.0105252
-0.0136538
-0.0165613
-0.0192049
-0.0215457
-0.0235492
-0.0251848
-0.0264261
-0.0272504
-0.0276386
-0.0275751
-0.0270476
-0.0260465
-0.0245651
-0.0225992
-0.0201468
-0.017208
-0.0137846
-0.00988018
-0.00549976
-0.00064964
0.00466278
0.0104291
0.0166401
0.0232857
0.0303556
0.0378385
0.0457232
0.0539979
0.0626507
0.0716694
0.0810421
0.0907565
0.1008
0.111162
0.12183
0.132792
0.144036
0.155552
0.167329
0.179355
0.191621
0.204117
0.216832
0.229758
0.242885
0.256205
0.26971
0.28339
0.297239
0.31125
0.325414
0.339727
0.35418
0.368768
0.383485
0.398326
0.413284
0.428356
0.443536
0.458819
0.4742
0.489677
0.505243
0.520895
0.536629
0.552441
0.568327
0.584283
0.600305
0.616389
0.632531
0.648727
0.664972
0.681264
0.697595
0.713964
0.730363
0.746788
0.763234
0.779694
0.796163
0.812635
0.829102
0.845557
0.861992
0.878399
0.89477
0.911096
0.927366
0.94357
0.959697
0.975737
0.991677
1.0075
1.0232
1.03876
1.05417
1.06941
1.08446
1.0993
1.11393
1.12832
1.14246
1.15632
1.16989
1.18315
1.19607
1.20864
1.22084
1.23265
1.24404
1.255
1.26551
1.27554
1.28508
1.29411
1.30261
1.31057
1.31797
1.32479
1.33103
1.33666
1.3417
1.34612
1.34992
1.3531
1.35567
1.35763
1.35898
1.35975
1.35993
1.35956
1.35866
1.35726
1.35539
1.35308
1.35039
1.34736
1.34404
1.34049
1.33676
1.33293
1.32906
1.3252
1.32143
1.31783
1.31445
1.31115
1.30776
0.0279761
0.0242351
0.0207663
0.0173727
0.0138499
0.0102498
0.0066304
0.00303482
-0.000492623
-0.00390638
-0.00716197
-0.0102169
-0.0130312
-0.0155679
-0.0177934
-0.0196772
-0.0211925
-0.0223157
-0.0230265
-0.023308
-0.0231459
-0.0225291
-0.0214491
-0.0198996
-0.0178769
-0.015379
-0.0124062
-0.00896025
-0.0050444
-0.000663377
0.00417692
0.00946952
0.0152065
0.0213792
0.0279782
0.0349936
0.0424148
0.0502311
0.0584313
0.0670041
0.0759379
0.0852212
0.0948423
0.10479
0.115052
0.125617
0.136475
0.147613
0.159022
0.170691
0.182608
0.194765
0.207151
0.219757
0.232574
0.245592
0.258804
0.272201
0.285775
0.299518
0.313423
0.327484
0.341693
0.356044
0.370532
0.385149
0.39989
0.41475
0.429725
0.444807
0.459994
0.47528
0.490661
0.506132
0.521689
0.537328
0.553045
0.568835
0.584696
0.600621
0.616609
0.632653
0.64875
0.664897
0.681087
0.697317
0.713581
0.729876
0.746194
0.762532
0.778882
0.795239
0.811596
0.827947
0.844284
0.860599
0.876885
0.893131
0.909331
0.925473
0.941547
0.957543
0.97345
0.989255
1.00495
1.02051
1.03593
1.0512
1.0663
1.08121
1.09592
1.11041
1.12466
1.13867
1.1524
1.16584
1.17897
1.19177
1.20422
1.21631
1.22801
1.2393
1.25016
1.26058
1.27054
1.28001
1.28898
1.29743
1.30534
1.31271
1.31952
1.32575
1.33139
1.33645
1.3409
1.34475
1.34799
1.35063
1.35267
1.35412
1.35499
1.35529
1.35504
1.35426
1.35299
1.35125
1.34907
1.34649
1.34356
1.34032
1.33682
1.33311
1.32924
1.32528
1.32126
1.31724
1.3133
1.30947
1.30553
1.30125
0.0339971
0.0294443
0.0253841
0.0215604
0.0176946
0.0138306
0.0100203
0.00629625
0.00269291
-0.000752906
-0.00400468
-0.00702709
-0.00978657
-0.0122518
-0.0143938
-0.0161866
-0.0176068
-0.0186339
-0.01925
-0.0194403
-0.0191924
-0.0184964
-0.0173448
-0.0157322
-0.0136554
-0.011113
-0.00810518
-0.00463391
-0.000702424
0.00368474
0.00852192
0.0138025
0.0195188
0.0256627
0.0322252
0.0391968
0.0465674
0.0543268
0.0624644
0.0709692
0.0798302
0.0890362
0.0985762
0.108439
0.118614
0.129089
0.139854
0.150898
0.162211
0.173782
0.185602
0.19766
0.209947
0.222453
0.23517
0.248089
0.261201
0.274499
0.287974
0.30162
0.315428
0.329392
0.343505
0.357761
0.372153
0.386676
0.401325
0.416092
0.430974
0.445965
0.46106
0.476255
0.491545
0.506925
0.522392
0.53794
0.553566
0.569266
0.585034
0.600868
0.616763
0.632714
0.648717
0.664768
0.680862
0.696994
0.71316
0.729355
0.745572
0.761806
0.778052
0.794304
0.810554
0.826795
0.843021
0.859224
0.875395
0.891527
0.907609
0.923632
0.939587
0.955462
0.971247
0.986929
1.0025
1.01794
1.03323
1.04838
1.06335
1.07814
1.09273
1.1071
1.12123
1.13512
1.14873
1.16206
1.17508
1.18778
1.20014
1.21213
1.22374
1.23495
1.24574
1.25609
1.26598
1.2754
1.28432
1.29274
1.30063
1.30798
1.31478
1.32102
1.32668
1.33176
1.33625
1.34014
1.34344
1.34615
1.34827
1.3498
1.35076
1.35116
1.35101
1.35034
1.34917
1.34752
1.34543
1.34293
1.34006
1.33685
1.33335
1.3296
1.32565
1.32154
1.31731
1.31301
1.30868
1.30438
1.29979
1.29462
0.0400291
0.0346758
0.0300191
0.0257483
0.0215146
0.0173566
0.0133212
0.00943225
0.00571556
0.00220025
-0.00108428
-0.00410925
-0.00684698
-0.00927136
-0.0113581
-0.0130852
-0.0144328
-0.0153833
-0.0159217
-0.016035
-0.0157127
-0.0149466
-0.0137302
-0.0120591
-0.00993081
-0.00734444
-0.00430064
-0.000801504
0.00314961
0.00754819
0.0123887
0.0176646
0.0233686
0.0294928
0.0360285
0.0429665
0.0502973
0.058011
0.0660973
0.0745457
0.0833456
0.0924863
0.101957
0.111747
0.121846
0.132243
0.142927
0.153888
0.165117
0.176601
0.188333
0.200303
0.2125
0.224917
0.237544
0.250372
0.263394
0.276602
0.289987
0.303542
0.31726
0.331135
0.345159
0.359326
0.373631
0.388066
0.402626
0.417307
0.432102
0.447006
0.462015
0.477124
0.492328
0.507622
0.523003
0.538465
0.554004
0.569617
0.585298
0.601044
0.61685
0.632712
0.648626
0.664586
0.680588
0.696628
0.7127
0.7288
0.744921
0.761058
0.777206
0.793357
0.809506
0.825645
0.841768
0.857866
0.873931
0.889955
0.905929
0.921843
0.937688
0.953453
0.969126
0.984697
1.00015
1.01548
1.03067
1.0457
1.06056
1.07524
1.08972
1.10399
1.11802
1.13181
1.14533
1.15856
1.17149
1.1841
1.19638
1.20829
1.21983
1.23098
1.24171
1.25201
1.26186
1.27124
1.28013
1.28853
1.29641
1.30376
1.31056
1.31682
1.3225
1.32761
1.33214
1.33609
1.33945
1.34222
1.34441
1.34602
1.34707
1.34755
1.34748
1.3469
1.3458
1.34422
1.34219
1.33973
1.33687
1.33366
1.33012
1.32629
1.32221
1.31792
1.31344
1.30881
1.30408
1.29929
1.29405
1.288
0.0459616
0.0398262
0.0345761
0.0298494
0.0252319
0.0207582
0.0164721
0.0123897
0.00852972
0.00491435
0.00156671
-0.00149031
-0.00423439
-0.00664426
-0.00870003
-0.0103834
-0.0116781
-0.0125693
-0.0130447
-0.0130937
-0.0127074
-0.0118791
-0.0106039
-0.00887829
-0.00670067
-0.0040708
-0.000989835
0.00253979
0.0065145
0.0109296
0.0157797
0.0210581
0.0267579
0.0328711
0.0393894
0.0463039
0.0536053
0.061284
0.0693301
0.0777335
0.0864838
0.0955708
0.104984
0.114713
0.124748
0.135077
0.145692
0.156582
0.167736
0.179145
0.190801
0.202692
0.21481
0.227147
0.239693
0.25244
0.265381
0.278506
0.291809
0.305282
0.318918
0.332711
0.346653
0.360738
0.374961
0.389315
0.403794
0.418393
0.433107
0.44793
0.462858
0.477885
0.493008
0.508221
0.52352
0.5389
0.554358
0.569888
0.585486
0.601149
0.616871
0.632648
0.648476
0.66435
0.680266
0.696218
0.712201
0.728211
0.744241
0.760287
0.776341
0.792399
0.808453
0.824497
0.840523
0.856523
0.87249
0.888416
0.90429
0.920105
0.935849
0.951513
0.967086
0.982556
0.997912
1.01314
1.02823
1.04316
1.05793
1.07252
1.08691
1.10108
1.11503
1.12873
1.14216
1.15532
1.16818
1.18072
1.19293
1.20479
1.21628
1.22737
1.23806
1.24833
1.25815
1.26751
1.27639
1.28479
1.29267
1.30003
1.30685
1.31313
1.31885
1.324
1.32858
1.33258
1.336
1.33884
1.34109
1.34277
1.34389
1.34444
1.34445
1.34392
1.34288
1.34135
1.33935
1.3369
1.33403
1.33078
1.32717
1.32322
1.31898
1.31448
1.30972
1.30474
1.29959
1.29431
1.28842
1.28152
0.0516992
0.0448045
0.0389696
0.0337846
0.0287741
0.0239701
0.0194145
0.0151171
0.0110903
0.00735029
0.00391475
0.00080128
-0.00197267
-0.00439026
-0.00643565
-0.00809424
-0.00935286
-0.0101999
-0.0106253
-0.0106206
-0.0101792
-0.00929573
-0.00796668
-0.00618984
-0.00396446
-0.00129109
0.00182851
0.00539144
0.00939378
0.0138307
0.0186964
0.0239845
0.0296879
0.0357988
0.042309
0.0492097
0.056492
0.0641463
0.0721631
0.0805325
0.0892445
0.0982892
0.107656
0.117336
0.127317
0.137591
0.148148
0.158976
0.170068
0.181413
0.193001
0.204824
0.216874
0.22914
0.241615
0.25429
0.267157
0.28021
0.293439
0.306838
0.3204
0.334117
0.347985
0.361995
0.376142
0.390421
0.404825
0.419348
0.433987
0.448734
0.463586
0.478538
0.493584
0.508721
0.523943
0.539246
0.554626
0.570078
0.585598
0.601182
0.616824
0.632521
0.648268
0.664061
0.679894
0.695763
0.711662
0.727587
0.743532
0.759491
0.775459
0.791429
0.807395
0.823349
0.839286
0.855196
0.871073
0.886907
0.902691
0.918414
0.934067
0.949641
0.965123
0.980504
0.995771
1.01091
1.02591
1.04077
1.05545
1.06996
1.08426
1.09836
1.11224
1.12587
1.13924
1.15234
1.16514
1.17763
1.18979
1.20161
1.21306
1.22413
1.23479
1.24504
1.25485
1.26421
1.27309
1.28149
1.28939
1.29677
1.30363
1.30994
1.3157
1.3209
1.32553
1.32959
1.33307
1.33597
1.3383
1.34005
1.34122
1.34184
1.3419
1.34143
1.34043
1.33892
1.33693
1.33447
1.33156
1.32824
1.32453
1.32045
1.31602
1.31127
1.30622
1.30088
1.2953
1.28951
1.28299
1.27528
0.0571591
0.0495301
0.0431227
0.0374817
0.0320743
0.026931
0.022093
0.0175647
0.0133529
0.00946904
0.00592574
0.00273599
-8.71355e-05
-0.00253087
-0.00458314
-0.00623276
-0.00746967
-0.00828503
-0.00867129
-0.00862223
-0.00813299
-0.00720005
-0.00582121
-0.00399552
-0.00172327
0.000994159
0.00415428
0.00775365
0.0117879
0.0162519
0.0211396
0.0264445
0.0321594
0.0382766
0.0447877
0.0516844
0.0589575
0.0665979
0.0745962
0.0829426
0.0916274
0.100641
0.109973
0.119614
0.129554
0.139784
0.150293
0.161072
0.172111
0.183401
0.194934
0.206699
0.218689
0.230895
0.243308
0.25592
0.268723
0.281711
0.294874
0.308207
0.321702
0.335353
0.349152
0.363095
0.377174
0.391383
0.405718
0.420172
0.434741
0.449418
0.4642
0.47908
0.494056
0.509121
0.524271
0.539501
0.554808
0.570187
0.585633
0.601142
0.616709
0.63233
0.648001
0.663717
0.679472
0.695263
0.711083
0.726929
0.742793
0.758672
0.774559
0.790447
0.80633
0.822202
0.838056
0.853883
0.869677
0.885428
0.901129
0.91677
0.932341
0.947833
0.963236
0.978537
0.993727
1.00879
1.02372
1.0385
1.05311
1.06755
1.0818
1.09583
1.10965
1.12323
1.13655
1.1496
1.16236
1.17482
1.18695
1.19874
1.21017
1.22122
1.23188
1.24213
1.25194
1.26131
1.27021
1.27864
1.28656
1.29398
1.30088
1.30724
1.31305
1.31831
1.323
1.32712
1.33067
1.33363
1.33602
1.33784
1.33907
1.33974
1.33986
1.33942
1.33844
1.33694
1.33494
1.33245
1.32949
1.32608
1.32224
1.318
1.31337
1.30836
1.303
1.29729
1.29127
1.28499
1.27786
1.26936
0.0622691
0.0539319
0.0469664
0.0408751
0.0350709
0.0295839
0.0244551
0.0196846
0.0152745
0.011232
0.00756542
0.00428367
0.00139586
-0.00108897
-0.00316218
-0.00481583
-0.00604279
-0.00683686
-0.00719288
-0.00710678
-0.0065756
-0.00559751
-0.00417176
-0.00229867
2.0379e-05
0.00278307
0.00598615
0.00962553
0.0136963
0.0181929
0.0231091
0.0284381
0.0341725
0.0403045
0.0468259
0.0537281
0.0610022
0.068639
0.0766293
0.0849635
0.0936322
0.102626
0.111934
0.121548
0.131458
0.141654
0.152127
0.162866
0.173864
0.185111
0.196598
0.208315
0.220256
0.23241
0.24477
0.257329
0.270077
0.283008
0.296115
0.309389
0.322826
0.336416
0.350155
0.364036
0.378054
0.392201
0.406473
0.420863
0.435368
0.449981
0.464697
0.479512
0.494422
0.50942
0.524503
0.539666
0.554904
0.570214
0.585591
0.601029
0.616526
0.632076
0.647675
0.663318
0.679
0.694717
0.710464
0.726235
0.742025
0.757828
0.773639
0.789451
0.805258
0.821054
0.836831
0.852583
0.868301
0.883977
0.899603
0.91517
0.930668
0.946088
0.96142
0.976653
0.991775
1.00677
1.02164
1.03636
1.05091
1.0653
1.07949
1.09348
1.10725
1.12079
1.13408
1.1471
1.15984
1.17227
1.18439
1.19617
1.2076
1.21865
1.22932
1.23958
1.24941
1.25881
1.26774
1.27621
1.28418
1.29165
1.29859
1.30501
1.31089
1.31621
1.32097
1.32516
1.32877
1.33181
1.33427
1.33614
1.33744
1.33816
1.33831
1.3379
1.33694
1.33544
1.33341
1.33087
1.32784
1.32432
1.32035
1.31593
1.31107
1.3058
1.30012
1.29403
1.28758
1.28082
1.27309
1.26383
0.0669657
0.0579462
0.0504385
0.0439048
0.0377069
0.0318752
0.026451
0.0214309
0.0168132
0.0126012
0.0087997
0.00541384
0.00244925
-8.84142e-05
-0.00219373
-0.00386173
-0.00508801
-0.00586893
-0.00620162
-0.00608411
-0.0055153
-0.00449504
-0.00302406
-0.00110399
0.00126267
0.0040726
0.00732172
0.0110052
0.0151176
0.0196529
0.0246043
0.0299648
0.0357269
0.0418825
0.0484234
0.0553408
0.0626259
0.0702695
0.0782625
0.0865954
0.0952589
0.104243
0.113539
0.123137
0.133028
0.143201
0.153649
0.16436
0.175327
0.186541
0.197992
0.209672
0.221573
0.233685
0.246003
0.258516
0.271218
0.284102
0.297159
0.310384
0.323769
0.337307
0.350993
0.36482
0.378782
0.392873
0.407088
0.421422
0.435868
0.450422
0.465079
0.479834
0.494682
0.509618
0.524639
0.539739
0.554914
0.570159
0.585471
0.600844
0.616275
0.631758
0.647289
0.662865
0.678479
0.694127
0.709804
0.725506
0.741226
0.756959
0.772699
0.788441
0.804178
0.819904
0.835612
0.851294
0.866943
0.882551
0.89811
0.913611
0.929045
0.944403
0.959673
0.974846
0.989911
1.00486
1.01967
1.03434
1.04885
1.06319
1.07735
1.0913
1.10505
1.11856
1.13182
1.14483
1.15756
1.16999
1.1821
1.19389
1.20533
1.21641
1.2271
1.23739
1.24726
1.25669
1.26568
1.27419
1.28222
1.28975
1.29677
1.30325
1.3092
1.3146
1.31943
1.3237
1.32739
1.3305
1.33302
1.33496
1.33631
1.33708
1.33726
1.33688
1.33592
1.33441
1.33235
1.32976
1.32664
1.32301
1.31888
1.31427
1.30918
1.30363
1.29763
1.29116
1.28429
1.27706
1.26874
1.25877
0.0711924
0.0615161
0.0534826
0.046516
0.0399297
0.0337549
0.0280338
0.02276
0.0179285
0.0135396
0.00959476
0.00609592
0.00304552
0.000446144
-0.00169971
-0.00338982
-0.0046224
-0.00539617
-0.00571051
-0.00556545
-0.00496175
-0.0039009
-0.00238512
-0.000417372
0.00199867
0.00485868
0.00815765
0.01189
0.0160497
0.02063
0.0256238
0.0310238
0.036822
0.0430102
0.0495799
0.0565224
0.0638287
0.0714896
0.079496
0.0878385
0.0965078
0.105494
0.114789
0.124382
0.134264
0.144426
0.154859
0.165553
0.1765
0.187691
0.199117
0.210769
0.22264
0.234721
0.247004
0.259482
0.272147
0.284991
0.298008
0.31119
0.324531
0.338025
0.351665
0.365445
0.379358
0.3934
0.407565
0.421847
0.436241
0.450741
0.465344
0.480044
0.494836
0.509716
0.524679
0.539721
0.554837
0.570023
0.585274
0.600586
0.615955
0.631376
0.646845
0.662357
0.677907
0.693491
0.709104
0.724741
0.740396
0.756064
0.77174
0.787417
0.80309
0.818752
0.834396
0.850015
0.865603
0.88115
0.89665
0.912093
0.92747
0.942773
0.957992
0.973115
0.988133
1.00303
1.01781
1.03244
1.04691
1.06123
1.07536
1.08929
1.10302
1.11652
1.12978
1.14278
1.15551
1.16795
1.18009
1.1919
1.20336
1.21447
1.2252
1.23554
1.24546
1.25495
1.264
1.27258
1.28068
1.28829
1.29538
1.30195
1.30798
1.31346
1.31838
1.32273
1.32651
1.32969
1.33229
1.33429
1.3357
1.33652
1.33674
1.33637
1.33542
1.33389
1.33179
1.32912
1.32591
1.32216
1.31787
1.31306
1.30774
1.30191
1.29558
1.28875
1.28146
1.27375
1.26488
1.25422
0.0748988
0.06459
0.0560473
0.0486582
0.0416903
0.0351759
0.0291587
0.0236298
0.0185813
0.0140109
0.00991721
0.00629933
0.00315683
0.000489521
-0.00170278
-0.00342042
-0.00466403
-0.00543463
-0.00573369
-0.00556322
-0.00492577
-0.00382447
-0.00226303
-0.000245744
0.00222252
0.00513635
0.00848983
0.0122766
0.0164897
0.0211221
0.026166
0.0316137
0.0374568
0.0436869
0.0502952
0.0572728
0.0646106
0.0722995
0.0803301
0.0886932
0.0973794
0.106379
0.115684
0.125283
0.135168
0.14533
0.155759
0.166446
0.177384
0.188562
0.199973
0.211608
0.223458
0.235517
0.247776
0.260227
0.272863
0.285676
0.298661
0.311809
0.325115
0.338571
0.352172
0.365911
0.379783
0.393782
0.407903
0.422139
0.436487
0.45094
0.465494
0.480144
0.494886
0.509714
0.524624
0.539613
0.554674
0.569805
0.585
0.600256
0.615568
0.630931
0.646341
0.661794
0.677286
0.69281
0.708363
0.72394
0.739535
0.755144
0.77076
0.786378
0.801992
0.817596
0.833182
0.848745
0.864278
0.879771
0.895219
0.910612
0.925941
0.941198
0.956373
0.971456
0.986436
1.0013
1.01604
1.03065
1.0451
1.0594
1.07351
1.08744
1.10116
1.11466
1.12793
1.14095
1.15369
1.16616
1.17832
1.19017
1.20168
1.21284
1.22363
1.23402
1.24401
1.25358
1.2627
1.27137
1.27955
1.28725
1.29444
1.3011
1.30723
1.31281
1.31782
1.32226
1.32613
1.3294
1.33207
1.33415
1.33561
1.33648
1.33673
1.33638
1.33543
1.33388
1.33173
1.329
1.32569
1.32181
1.31735
1.31235
1.30679
1.30068
1.29402
1.28682
1.27912
1.27097
1.26156
1.25023
0.0780395
0.0671212
0.0580854
0.0502846
0.042943
0.0360942
0.0297835
0.0240001
0.0187337
0.0139797
0.00973409
0.00599359
0.00275518
1.61322e-05
-0.00222621
-0.00397457
-0.00523186
-0.00600126
-0.00628629
-0.00609083
-0.00541919
-0.00427612
-0.00266682
-0.000596914
0.0019275
0.00489991
0.00831344
0.0121608
0.0164345
0.0211266
0.0262289
0.031733
0.0376303
0.0439119
0.0505689
0.057592
0.064972
0.0726997
0.0807656
0.0891604
0.0978747
0.106899
0.116224
0.125841
0.13574
0.145913
0.156349
0.167041
0.177979
0.189156
0.200561
0.212189
0.224029
0.236075
0.248318
0.260752
0.273368
0.286159
0.299119
0.312242
0.325519
0.338946
0.352515
0.366221
0.380058
0.394021
0.408103
0.422301
0.436607
0.451019
0.465529
0.480135
0.494831
0.509613
0.524475
0.539415
0.554427
0.569507
0.584651
0.599855
0.615113
0.630423
0.64578
0.661178
0.676615
0.692084
0.707582
0.723104
0.738644
0.754197
0.769759
0.785323
0.800884
0.816435
0.83197
0.847483
0.862967
0.878414
0.893816
0.909166
0.924455
0.939674
0.954813
0.969864
0.984816
0.999658
1.01438
1.02897
1.04341
1.05769
1.07181
1.08574
1.09947
1.11299
1.12627
1.13932
1.1521
1.1646
1.17681
1.18871
1.20028
1.2115
1.22236
1.23283
1.24291
1.25256
1.26178
1.27054
1.27883
1.28663
1.29392
1.30069
1.30693
1.31262
1.31774
1.32229
1.32625
1.32961
1.33237
1.33452
1.33606
1.33697
1.33726
1.33693
1.33598
1.33441
1.33222
1.32941
1.326
1.32198
1.31737
1.31216
1.30636
1.29997
1.293
1.28543
1.27733
1.26874
1.25881
1.24684
0.0805731
0.0690667
0.0595532
0.0513518
0.0436449
0.0364679
0.0298679
0.0238323
0.018349
0.0134112
0.00901289
0.00514842
0.0018125
-0.000999898
-0.00329372
-0.00507391
-0.00634553
-0.00711382
-0.00738424
-0.00716252
-0.00645467
-0.00526704
-0.00360629
-0.00147943
0.00110623
0.00414306
0.00762317
0.0115384
0.0158804
0.0206406
0.0258101
0.03138
0.0373413
0.0436846
0.0504007
0.0574801
0.0649132
0.0726908
0.0808032
0.0892411
0.0979949
0.107055
0.116413
0.126059
0.135983
0.146177
0.156632
0.167338
0.178289
0.189473
0.200885
0.212514
0.224354
0.236397
0.248634
0.261059
0.273664
0.286442
0.299386
0.31249
0.325747
0.339151
0.352696
0.366376
0.380185
0.394117
0.408168
0.422332
0.436604
0.450979
0.465452
0.480018
0.494673
0.509413
0.524233
0.539129
0.554096
0.56913
0.584227
0.599383
0.614593
0.629854
0.64516
0.660509
0.675895
0.691314
0.706761
0.722232
0.737722
0.753225
0.768737
0.784252
0.799765
0.815269
0.830759
0.846228
0.861669
0.877075
0.892439
0.907753
0.923009
0.938198
0.95331
0.968338
0.98327
0.998096
1.01281
1.02739
1.04183
1.05612
1.07024
1.08419
1.09794
1.11148
1.1248
1.13788
1.15071
1.16327
1.17554
1.18751
1.19915
1.21045
1.2214
1.23196
1.24213
1.25189
1.26122
1.27009
1.27849
1.28641
1.29383
1.30073
1.30708
1.31289
1.31813
1.3228
1.32687
1.33033
1.33319
1.33543
1.33703
1.338
1.33834
1.33803
1.33708
1.33549
1.33326
1.33038
1.32687
1.32272
1.31794
1.31253
1.30649
1.29983
1.29254
1.28462
1.27613
1.26711
1.25668
1.24409
0.0824613
0.0703866
0.06041
0.051819
0.0437556
0.0362573
0.0293732
0.0230892
0.0173915
0.0122716
0.00772155
0.00373371
0.000300688
-0.00258466
-0.0049294
-0.00674058
-0.00802527
-0.0087907
-0.00904418
-0.00879323
-0.00804555
-0.00680907
-0.00509191
-0.00290244
-0.000249218
0.002859
0.00641327
0.0104045
0.0148235
0.0196609
0.0249073
0.0305531
0.0365888
0.0430045
0.0497906
0.0569373
0.064435
0.0722739
0.0804444