/*--------------------------------*- C++ -*----------------------------------*\
  =========                 |
  \\      /  F ield         | OpenFOAM: The Open Source CFD Toolbox
   \\    /   O peration     | Website:  https://openfoam.org
    \\  /    A nd           | Version:  7
     \\/     M anipulation  |
\*---------------------------------------------------------------------------*/
FoamFile
{
    version     2.0;
    format      ascii;
    class       surfaceScalarField;
    location    "0.175";
    object      phi;
}
// * * * * * * * * * * * * * * * * * * * * * * * * * * * * * * * * * * * * * //

dimensions      [0 3 -1 0 0 0 0];

internalField   nonuniform List<scalar> 
25360
(
1.1405e-10
-1.14542e-10
3.59372e-10
-2.45322e-10
6.03982e-10
-2.44607e-10
7.64798e-10
-1.60836e-10
7.97734e-10
-3.29452e-11
6.8101e-10
1.16736e-10
4.05992e-10
2.75027e-10
-2.79958e-11
4.33978e-10
-6.1681e-10
5.88805e-10
-1.35343e-09
7.36615e-10
-2.22909e-09
8.75664e-10
-3.23402e-09
1.00494e-09
-4.35793e-09
1.1239e-09
-5.59029e-09
1.23235e-09
-6.92058e-09
1.33029e-09
-8.33843e-09
1.41786e-09
-9.83376e-09
1.49532e-09
-1.13968e-08
1.56301e-09
-1.30181e-08
1.62132e-09
-1.46888e-08
1.67066e-09
-1.64003e-08
1.7115e-09
-1.81445e-08
1.74429e-09
-1.9914e-08
1.76951e-09
-2.17017e-08
1.78762e-09
-2.35008e-08
1.79911e-09
-2.53052e-08
1.80445e-09
-2.71093e-08
1.8041e-09
-2.89078e-08
1.7985e-09
-3.06959e-08
1.78809e-09
-3.24692e-08
1.7733e-09
-3.42238e-08
1.75453e-09
-3.5956e-08
1.73218e-09
-3.76626e-08
1.70661e-09
-3.93408e-08
1.67819e-09
-4.0988e-08
1.64726e-09
-4.26021e-08
1.61413e-09
-4.41812e-08
1.5791e-09
-4.57237e-08
1.54246e-09
-4.72282e-08
1.50447e-09
-4.86936e-08
1.46539e-09
-5.0119e-08
1.42543e-09
-5.15038e-08
1.38482e-09
-5.28476e-08
1.34374e-09
-5.41499e-08
1.30238e-09
-5.54108e-08
1.26089e-09
-5.66303e-08
1.21944e-09
-5.78084e-08
1.17814e-09
-5.89455e-08
1.13712e-09
-6.0042e-08
1.09649e-09
-6.10984e-08
1.05633e-09
-6.21151e-08
1.01674e-09
-6.30929e-08
9.77764e-10
-6.40323e-08
9.3948e-10
-6.49343e-08
9.0193e-10
-6.57994e-08
8.65153e-10
-6.66286e-08
8.29175e-10
-6.74226e-08
7.94019e-10
-6.81823e-08
7.59697e-10
-6.89085e-08
7.26216e-10
-6.96021e-08
6.93572e-10
-7.02639e-08
6.61756e-10
-7.08946e-08
6.30755e-10
-7.14952e-08
6.00546e-10
-7.20663e-08
5.71104e-10
-7.26087e-08
5.42398e-10
-7.31231e-08
5.14395e-10
-7.36101e-08
4.87054e-10
-7.40704e-08
4.60331e-10
-7.45046e-08
4.34176e-10
-7.49132e-08
4.08542e-10
-7.52965e-08
3.83375e-10
-7.56552e-08
3.58621e-10
-7.59894e-08
3.34217e-10
-7.62995e-08
3.101e-10
-7.65857e-08
2.86206e-10
-7.68482e-08
2.62469e-10
-7.7087e-08
2.38824e-10
-7.73022e-08
2.15205e-10
-7.74937e-08
1.91539e-10
-7.76615e-08
1.67754e-10
-7.78053e-08
1.43773e-10
-7.79248e-08
1.19524e-10
-7.80197e-08
9.49335e-11
-7.80896e-08
6.99295e-11
-7.81341e-08
4.44374e-11
-7.81525e-08
1.83822e-11
-7.81442e-08
-8.31061e-12
-7.81084e-08
-3.57136e-11
-7.80445e-08
-6.38989e-11
-7.79516e-08
-9.29373e-11
-7.78287e-08
-1.22898e-10
-7.76749e-08
-1.53848e-10
-7.7489e-08
-1.85851e-10
-7.727e-08
-2.18967e-10
-7.70168e-08
-2.53254e-10
-7.6728e-08
-2.88765e-10
-7.64025e-08
-3.2555e-10
-7.60388e-08
-3.63652e-10
-7.56357e-08
-4.0311e-10
-7.51917e-08
-4.43956e-10
-7.47055e-08
-4.86214e-10
-7.41756e-08
-5.299e-10
-7.36006e-08
-5.75021e-10
-7.2979e-08
-6.21577e-10
-7.23095e-08
-6.69555e-10
-7.15906e-08
-7.18935e-10
-7.08209e-08
-7.69682e-10
-6.99991e-08
-8.21747e-10
-6.91241e-08
-8.75069e-10
-6.81945e-08
-9.29573e-10
-6.72093e-08
-9.85169e-10
-6.61676e-08
-1.04175e-09
-6.50684e-08
-1.09919e-09
-6.3911e-08
-1.15735e-09
-6.26949e-08
-1.21608e-09
-6.14198e-08
-1.27518e-09
-6.00853e-08
-1.33446e-09
-5.86916e-08
-1.3937e-09
-5.7239e-08
-1.45266e-09
-5.57279e-08
-1.51107e-09
-5.41592e-08
-1.56867e-09
-5.25341e-08
-1.62513e-09
-5.08539e-08
-1.68014e-09
-4.91206e-08
-1.73335e-09
-4.73362e-08
-1.78438e-09
-4.55033e-08
-1.83286e-09
-4.3625e-08
-1.87838e-09
-4.17045e-08
-1.9205e-09
-3.97457e-08
-1.95879e-09
-3.77529e-08
-1.99278e-09
-3.57309e-08
-2.02201e-09
-3.36849e-08
-2.04598e-09
-3.16207e-08
-2.06421e-09
-2.95445e-08
-2.07617e-09
-2.74631e-08
-2.08137e-09
-2.53839e-08
-2.07929e-09
-2.33145e-08
-2.0694e-09
-2.12633e-08
-2.05121e-09
-1.92391e-08
-2.0242e-09
-1.72512e-08
-1.98787e-09
-1.53094e-08
-1.94176e-09
-1.3424e-08
-1.88539e-09
-1.16057e-08
-1.81833e-09
-9.86551e-09
-1.7402e-09
-8.21486e-09
-1.65064e-09
-6.66549e-09
-1.54937e-09
-5.22928e-09
-1.4362e-09
-3.91824e-09
-1.31104e-09
-2.74427e-09
-1.17397e-09
-1.71898e-09
-1.02529e-09
-8.53335e-10
-8.65639e-10
-1.5717e-10
-6.96156e-10
3.616e-10
-5.18764e-10
6.98223e-10
-3.36625e-10
8.53192e-10
-1.54977e-10
8.35743e-10
1.7445e-11
6.69686e-10
1.66061e-10
4.03755e-10
2.65939e-10
1.3073e-10
2.73035e-10
1.30734e-10
2.45254e-10
-3.59796e-10
6.33687e-10
-6.33766e-10
9.49626e-10
-5.60528e-10
1.04633e-09
-2.57522e-10
8.27956e-10
1.85416e-10
2.3805e-10
7.06622e-10
-7.51741e-10
1.26481e-09
-2.15043e-09
1.83268e-09
-3.95391e-09
2.39229e-09
-6.14919e-09
2.9319e-09
-8.7174e-09
3.44388e-09
-1.16359e-08
3.92339e-09
-1.48795e-08
4.36752e-09
-1.84218e-08
4.77469e-09
-2.22358e-08
5.14429e-09
-2.62943e-08
5.47637e-09
-3.05705e-08
5.77148e-09
-3.5038e-08
6.03054e-09
-3.96714e-08
6.25475e-09
-4.44463e-08
6.44549e-09
-4.9339e-08
6.60425e-09
-5.43274e-08
6.73265e-09
-5.93902e-08
6.83235e-09
-6.45076e-08
6.90505e-09
-6.9661e-08
6.95248e-09
-7.48329e-08
6.97635e-09
-8.00072e-08
6.97835e-09
-8.51688e-08
6.96014e-09
-9.03041e-08
6.92337e-09
-9.54004e-08
6.8696e-09
-1.00446e-07
6.80039e-09
-1.05431e-07
6.7172e-09
-1.10346e-07
6.62146e-09
-1.15182e-07
6.51452e-09
-1.19933e-07
6.39766e-09
-1.24591e-07
6.27212e-09
-1.29151e-07
6.13905e-09
-1.33608e-07
5.99953e-09
-1.37958e-07
5.8546e-09
-1.42198e-07
5.70519e-09
-1.46325e-07
5.55221e-09
-1.50336e-07
5.39646e-09
-1.54231e-07
5.23871e-09
-1.58008e-07
5.07966e-09
-1.61668e-07
4.91993e-09
-1.65208e-07
4.76012e-09
-1.68631e-07
4.60074e-09
-1.71936e-07
4.44225e-09
-1.75124e-07
4.28508e-09
-1.78198e-07
4.12959e-09
-1.81157e-07
3.9761e-09
-1.84004e-07
3.8249e-09
-1.86741e-07
3.67621e-09
-1.89369e-07
3.53022e-09
-1.91891e-07
3.38709e-09
-1.94309e-07
3.24695e-09
-1.96625e-07
3.10988e-09
-1.98841e-07
2.97593e-09
-2.0096e-07
2.84513e-09
-2.02984e-07
2.71748e-09
-2.04915e-07
2.59296e-09
-2.06756e-07
2.4715e-09
-2.08508e-07
2.35304e-09
-2.10175e-07
2.23748e-09
-2.11757e-07
2.12471e-09
-2.13257e-07
2.01459e-09
-2.14677e-07
1.90698e-09
-2.16019e-07
1.80171e-09
-2.17283e-07
1.69861e-09
-2.18472e-07
1.59748e-09
-2.19587e-07
1.49811e-09
-2.20628e-07
1.40029e-09
-2.21598e-07
1.3038e-09
-2.22496e-07
1.20839e-09
-2.23324e-07
1.11383e-09
-2.24081e-07
1.01986e-09
-2.24769e-07
9.2623e-10
-2.25386e-07
8.32669e-10
-2.25933e-07
7.38906e-10
-2.2641e-07
6.44667e-10
-2.26816e-07
5.49673e-10
-2.2715e-07
4.53647e-10
-2.27412e-07
3.56305e-10
-2.27599e-07
2.57363e-10
-2.27711e-07
1.56537e-10
-2.27746e-07
5.35454e-11
-2.27703e-07
-5.18946e-11
-2.27579e-07
-1.60062e-10
-2.27371e-07
-2.71229e-10
-2.27078e-07
-3.85664e-10
-2.26698e-07
-5.03624e-10
-2.26226e-07
-6.25359e-10
-2.25661e-07
-7.51113e-10
-2.24999e-07
-8.81113e-10
-2.24237e-07
-1.01558e-09
-2.23371e-07
-1.1547e-09
-2.22397e-07
-1.29867e-09
-2.21313e-07
-1.44764e-09
-2.20115e-07
-1.60175e-09
-2.18798e-07
-1.76111e-09
-2.17358e-07
-1.92581e-09
-2.15792e-07
-2.09589e-09
-2.14096e-07
-2.27139e-09
-2.12265e-07
-2.45228e-09
-2.10296e-07
-2.63851e-09
-2.08185e-07
-2.82999e-09
-2.05928e-07
-3.02655e-09
-2.03522e-07
-3.22802e-09
-2.00963e-07
-3.43415e-09
-1.98248e-07
-3.64463e-09
-1.95374e-07
-3.85911e-09
-1.92338e-07
-4.07716e-09
-1.89139e-07
-4.2983e-09
-1.85775e-07
-4.52197e-09
-1.82243e-07
-4.74755e-09
-1.78544e-07
-4.97433e-09
-1.74677e-07
-5.20156e-09
-1.70642e-07
-5.42836e-09
-1.66441e-07
-5.65383e-09
-1.62075e-07
-5.87694e-09
-1.57547e-07
-6.09662e-09
-1.52861e-07
-6.31169e-09
-1.4802e-07
-6.52089e-09
-1.4303e-07
-6.72292e-09
-1.37898e-07
-6.91636e-09
-1.32632e-07
-7.09973e-09
-1.27238e-07
-7.27149e-09
-1.21729e-07
-7.43002e-09
-1.16114e-07
-7.57364e-09
-1.10406e-07
-7.70062e-09
-1.04619e-07
-7.80916e-09
-9.87676e-08
-7.89745e-09
-9.28682e-08
-7.96362e-09
-8.69386e-08
-8.00577e-09
-8.09979e-08
-8.02202e-09
-7.50668e-08
-8.01045e-09
-6.9167e-08
-7.96916e-09
-6.33219e-08
-7.89629e-09
-5.75561e-08
-7.79001e-09
-5.18954e-08
-7.64854e-09
-4.6367e-08
-7.4702e-09
-4.0999e-08
-7.2534e-09
-3.58206e-08
-6.99671e-09
-3.08619e-08
-6.69888e-09
-2.61536e-08
-6.35889e-09
-2.1727e-08
-5.97603e-09
-1.76132e-08
-5.54999e-09
-1.38432e-08
-5.08101e-09
-1.04471e-08
-4.57008e-09
-7.45323e-09
-4.01918e-09
-4.88716e-09
-3.43172e-09
-2.77016e-09
-2.81316e-09
-1.11694e-09
-2.17199e-09
6.76004e-11
-1.52116e-09
7.93084e-10
-8.80447e-10
1.09056e-09
-2.80017e-10
1.02239e-09
2.34227e-10
6.9513e-10
5.93186e-10
2.73046e-10
6.95113e-10
4.03789e-10
2.457e-10
-6.05498e-10
5.63218e-10
-9.51322e-10
6.97478e-10
-6.9479e-10
4.74503e-10
-3.45193e-11
-2.25415e-10
8.85342e-10
-1.47813e-09
1.95933e-09
-3.32552e-09
3.11218e-09
-5.78409e-09
4.29125e-09
-8.85187e-09
5.46008e-09
-1.25135e-08
6.59357e-09
-1.67443e-08
7.67465e-09
-2.15129e-08
8.69198e-09
-2.67837e-08
9.63826e-09
-3.25181e-08
1.05092e-08
-3.86763e-08
1.13025e-08
-4.52176e-08
1.20177e-08
-5.21014e-08
1.26553e-08
-5.92877e-08
1.32168e-08
-6.67372e-08
1.37043e-08
-7.4412e-08
1.41204e-08
-8.22758e-08
1.4468e-08
-9.02936e-08
1.47505e-08
-9.84324e-08
1.49711e-08
-1.06661e-07
1.51334e-08
-1.14949e-07
1.52409e-08
-1.2327e-07
1.52973e-08
-1.31598e-07
1.53061e-08
-1.39908e-07
1.52708e-08
-1.4818e-07
1.51949e-08
-1.56392e-07
1.50818e-08
-1.64526e-07
1.49348e-08
-1.72566e-07
1.4757e-08
-1.80496e-07
1.45516e-08
-1.88303e-07
1.43214e-08
-1.95975e-07
1.40693e-08
-2.03501e-07
1.37978e-08
-2.10871e-07
1.35096e-08
-2.18078e-07
1.32069e-08
-2.25116e-07
1.28921e-08
-2.31978e-07
1.25671e-08
-2.3866e-07
1.2234e-08
-2.45158e-07
1.18945e-08
-2.51469e-07
1.15503e-08
-2.57592e-07
1.12029e-08
-2.63526e-07
1.08538e-08
-2.6927e-07
1.05042e-08
-2.74825e-07
1.01552e-08
-2.80191e-07
9.80796e-09
-2.85369e-07
9.46332e-09
-2.90361e-07
9.12211e-09
-2.9517e-07
8.78505e-09
-2.99798e-07
8.45277e-09
-3.04248e-07
8.12577e-09
-3.08522e-07
7.80451e-09
-3.12624e-07
7.48932e-09
-3.16558e-07
7.18049e-09
-3.20326e-07
6.87822e-09
-3.23933e-07
6.58263e-09
-3.27382e-07
6.29381e-09
-3.30676e-07
6.01175e-09
-3.33819e-07
5.7364e-09
-3.36815e-07
5.46767e-09
-3.39668e-07
5.20538e-09
-3.4238e-07
4.94935e-09
-3.44954e-07
4.69934e-09
-3.47395e-07
4.45506e-09
-3.49704e-07
4.21619e-09
-3.51885e-07
3.98237e-09
-3.53939e-07
3.75322e-09
-3.5587e-07
3.52833e-09
-3.57679e-07
3.30724e-09
-3.59368e-07
3.08951e-09
-3.60939e-07
2.87462e-09
-3.62393e-07
2.66209e-09
-3.6373e-07
2.45136e-09
-3.64953e-07
2.2419e-09
-3.66059e-07
2.03314e-09
-3.67051e-07
1.82451e-09
-3.67928e-07
1.61542e-09
-3.68688e-07
1.40528e-09
-3.69332e-07
1.19348e-09
-3.69858e-07
9.7942e-10
-3.70264e-07
7.62472e-10
-3.70549e-07
5.42024e-10
-3.7071e-07
3.17462e-10
-3.70744e-07
8.81719e-11
-3.7065e-07
-1.46452e-10
-3.70423e-07
-3.87008e-10
-3.7006e-07
-6.34088e-10
-3.69557e-07
-8.88269e-10
-3.68911e-07
-1.15011e-09
-3.68116e-07
-1.42016e-09
-3.67168e-07
-1.69893e-09
-3.66063e-07
-1.98691e-09
-3.64794e-07
-2.28455e-09
-3.63356e-07
-2.59228e-09
-3.61744e-07
-2.91049e-09
-3.59952e-07
-3.2395e-09
-3.57974e-07
-3.57962e-09
-3.55804e-07
-3.93106e-09
-3.53436e-07
-4.294e-09
-3.50864e-07
-4.66854e-09
-3.4808e-07
-5.05471e-09
-3.4508e-07
-5.45246e-09
-3.41857e-07
-5.86164e-09
-3.38405e-07
-6.28203e-09
-3.34718e-07
-6.7133e-09
-3.30791e-07
-7.155e-09
-3.26619e-07
-7.60658e-09
-3.22196e-07
-8.06737e-09
-3.17519e-07
-8.53657e-09
-3.12583e-07
-9.01324e-09
-3.07384e-07
-9.49631e-09
-3.01922e-07
-9.98454e-09
-2.96193e-07
-1.04766e-08
-2.90196e-07
-1.09708e-08
-2.83932e-07
-1.14657e-08
-2.77401e-07
-1.19592e-08
-2.70606e-07
-1.24495e-08
-2.63549e-07
-1.29342e-08
-2.56234e-07
-1.3411e-08
-2.48669e-07
-1.38773e-08
-2.40859e-07
-1.43305e-08
-2.32814e-07
-1.47676e-08
-2.24545e-07
-1.51857e-08
-2.16063e-07
-1.55815e-08
-2.07383e-07
-1.59516e-08
-1.9852e-07
-1.62927e-08
-1.89493e-07
-1.6601e-08
-1.80321e-07
-1.68728e-08
-1.71026e-07
-1.71043e-08
-1.61632e-07
-1.72916e-08
-1.52165e-07
-1.74306e-08
-1.42653e-07
-1.75174e-08
-1.33127e-07
-1.7548e-08
-1.23619e-07
-1.75182e-08
-1.14164e-07
-1.74242e-08
-1.04799e-07
-1.72619e-08
-9.5561e-08
-1.70276e-08
-8.64919e-08
-1.67176e-08
-7.76336e-08
-1.63285e-08
-6.90297e-08
-1.58573e-08
-6.07255e-08
-1.53009e-08
-5.27671e-08
-1.46573e-08
-4.52014e-08
-1.39246e-08
-3.80757e-08
-1.31018e-08
-3.14367e-08
-1.2189e-08
-2.53303e-08
-1.11874e-08
-1.98004e-08
-1.01001e-08
-1.48872e-08
-8.93233e-09
-1.06262e-08
-7.69268e-09
-7.0454e-09
-6.39397e-09
-4.16213e-09
-5.05525e-09
-1.97896e-09
-3.70434e-09
-4.77848e-10
-2.38156e-09
3.87396e-10
-1.14527e-09
7.00895e-10
-7.92714e-11
5.95889e-10
6.98199e-10
2.6682e-10
1.02417e-09
6.70619e-10
1.637e-10
-7.69184e-10
2.64602e-10
-1.05223e-09
4.40458e-11
-4.74252e-10
-6.78281e-10
6.87808e-10
-2.02913e-09
2.2362e-09
-4.09173e-09
4.02192e-09
-6.91414e-09
5.93459e-09
-1.05169e-08
7.894e-09
-1.48992e-08
9.84244e-09
-2.00444e-08
1.17387e-08
-2.59237e-08
1.35539e-08
-3.24996e-08
1.52679e-08
-3.97288e-08
1.68674e-08
-4.75636e-08
1.83439e-08
-5.59538e-08
1.96928e-08
-6.48481e-08
2.0912e-08
-7.41946e-08
2.20017e-08
-8.39416e-08
2.29638e-08
-9.40385e-08
2.38012e-08
-1.04436e-07
2.45178e-08
-1.15086e-07
2.51183e-08
-1.25944e-07
2.56078e-08
-1.36964e-07
2.59917e-08
-1.48107e-07
2.62759e-08
-1.59332e-07
2.64661e-08
-1.70603e-07
2.65684e-08
-1.81886e-07
2.65887e-08
-1.93148e-07
2.65331e-08
-2.0436e-07
2.64072e-08
-2.15496e-07
2.6217e-08
-2.26529e-07
2.59679e-08
-2.37437e-07
2.56654e-08
-2.482e-07
2.53147e-08
-2.588e-07
2.49208e-08
-2.69219e-07
2.44885e-08
-2.79444e-07
2.40224e-08
-2.89461e-07
2.35268e-08
-2.9926e-07
2.30058e-08
-3.08831e-07
2.24632e-08
-3.18167e-07
2.19027e-08
-3.2726e-07
2.13275e-08
-3.36106e-07
2.07409e-08
-3.44702e-07
2.01457e-08
-3.53043e-07
1.95445e-08
-3.6113e-07
1.89399e-08
-3.68959e-07
1.8334e-08
-3.76533e-07
1.77288e-08
-3.83851e-07
1.71262e-08
-3.90915e-07
1.65277e-08
-3.97728e-07
1.59349e-08
-4.04292e-07
1.53489e-08
-4.1061e-07
1.47709e-08
-4.16686e-07
1.42017e-08
-4.22524e-07
1.36422e-08
-4.28128e-07
1.3093e-08
-4.33502e-07
1.25545e-08
-4.38651e-07
1.20272e-08
-4.43579e-07
1.15112e-08
-4.48292e-07
1.10068e-08
-4.52794e-07
1.05139e-08
-4.5709e-07
1.00324e-08
-4.61185e-07
9.56224e-09
-4.65083e-07
9.10311e-09
-4.68788e-07
8.65468e-09
-4.72305e-07
8.21654e-09
-4.75638e-07
7.78821e-09
-4.78791e-07
7.36915e-09
-4.81768e-07
6.95874e-09
-4.84571e-07
6.55634e-09
-4.87204e-07
6.16122e-09
-4.89669e-07
5.77263e-09
-4.91969e-07
5.38976e-09
-4.94107e-07
5.01178e-09
-4.96082e-07
4.6378e-09
-4.97898e-07
4.26691e-09
-4.99554e-07
3.89816e-09
-5.01052e-07
3.5306e-09
-5.0239e-07
3.16323e-09
-5.0357e-07
2.79504e-09
-5.0459e-07
2.42501e-09
-5.05448e-07
2.05209e-09
-5.06144e-07
1.67524e-09
-5.06675e-07
1.29339e-09
-5.07038e-07
9.05496e-10
-5.07232e-07
5.10492e-10
-5.07251e-07
1.07331e-10
-5.07092e-07
-3.05031e-10
-5.06751e-07
-7.27625e-10
-5.06224e-07
-1.16146e-09
-5.05505e-07
-1.60753e-09
-5.04588e-07
-2.06678e-09
-5.03468e-07
-2.54014e-09
-5.02139e-07
-3.02849e-09
-5.00593e-07
-3.53266e-09
-4.98824e-07
-4.05343e-09
-4.96825e-07
-4.59151e-09
-4.94588e-07
-5.14755e-09
-4.92105e-07
-5.72211e-09
-4.89369e-07
-6.31567e-09
-4.86371e-07
-6.92861e-09
-4.83104e-07
-7.56119e-09
-4.79559e-07
-8.21358e-09
-4.75728e-07
-8.8858e-09
-4.71603e-07
-9.57774e-09
-4.67175e-07
-1.02891e-08
-4.62438e-07
-1.10196e-08
-4.57383e-07
-1.17684e-08
-4.52003e-07
-1.25349e-08
-4.46291e-07
-1.33181e-08
-4.40242e-07
-1.41168e-08
-4.33849e-07
-1.49295e-08
-4.27108e-07
-1.57547e-08
-4.20014e-07
-1.65904e-08
-4.12564e-07
-1.74345e-08
-4.04755e-07
-1.82847e-08
-3.96588e-07
-1.91383e-08
-3.88061e-07
-1.99923e-08
-3.79177e-07
-2.08435e-08
-3.69938e-07
-2.16883e-08
-3.60349e-07
-2.25231e-08
-3.50417e-07
-2.33437e-08
-3.40148e-07
-2.41457e-08
-3.29554e-07
-2.49244e-08
-3.18647e-07
-2.5675e-08
-3.07441e-07
-2.63921e-08
-2.95952e-07
-2.70703e-08
-2.842e-07
-2.77038e-08
-2.72206e-07
-2.82867e-08
-2.59994e-07
-2.88128e-08
-2.47591e-07
-2.92758e-08
-2.35026e-07
-2.9669e-08
-2.22332e-07
-2.99858e-08
-2.09543e-07
-3.02195e-08
-1.96697e-07
-3.03633e-08
-1.83835e-07
-3.04104e-08
-1.70999e-07
-3.03539e-08
-1.58236e-07
-3.01873e-08
-1.45594e-07
-2.99039e-08
-1.33124e-07
-2.94976e-08
-1.20879e-07
-2.89623e-08
-1.08915e-07
-2.82925e-08
-9.72891e-08
-2.74833e-08
-8.60597e-08
-2.65303e-08
-7.52868e-08
-2.54302e-08
-6.50308e-08
-2.41806e-08
-5.5352e-08
-2.27806e-08
-4.63099e-08
-2.12311e-08
-3.7962e-08
-1.95353e-08
-3.03626e-08
-1.76995e-08
-2.35611e-08
-1.57338e-08
-1.75998e-08
-1.3654e-08
-1.25111e-08
-1.14826e-08
-8.31417e-09
-9.2522e-09
-5.00998e-09
-7.00852e-09
-2.57594e-09
-4.81558e-09
-9.5881e-10
-2.76239e-09
-6.61912e-11
-9.7189e-10
2.42821e-10
3.8919e-10
1.68939e-10
1.09805e-09
8.39563e-10
3.77114e-11
-8.0689e-10
-1.74233e-10
-8.40261e-10
-8.70611e-10
2.22112e-10
-2.22143e-09
2.03861e-09
-4.34845e-09
4.36321e-09
-7.33319e-09
7.00666e-09
-1.12236e-08
9.825e-09
-1.60402e-08
1.27106e-08
-2.17815e-08
1.55838e-08
-2.84288e-08
1.8386e-08
-3.59497e-08
2.10749e-08
-4.43022e-08
2.36204e-08
-5.34365e-08
2.60017e-08
-6.32978e-08
2.82052e-08
-7.38278e-08
3.02228e-08
-8.49663e-08
3.20505e-08
-9.66521e-08
3.36875e-08
-1.08824e-07
3.51357e-08
-1.21422e-07
3.63988e-08
-1.34386e-07
3.7482e-08
-1.47659e-07
3.83916e-08
-1.61186e-07
3.9135e-08
-1.74914e-07
3.97198e-08
-1.88793e-07
4.01545e-08
-2.02774e-07
4.04475e-08
-2.16814e-07
4.06077e-08
-2.30869e-07
4.06437e-08
-2.449e-07
4.05646e-08
-2.58872e-07
4.03788e-08
-2.7275e-07
4.00951e-08
-2.86504e-07
3.97217e-08
-3.00105e-07
3.92667e-08
-3.13528e-07
3.87381e-08
-3.26751e-07
3.81434e-08
-3.39752e-07
3.74898e-08
-3.52514e-07
3.67842e-08
-3.6502e-07
3.60331e-08
-3.77257e-07
3.52428e-08
-3.89213e-07
3.4419e-08
-4.00878e-07
3.35673e-08
-4.12243e-07
3.26928e-08
-4.23302e-07
3.18002e-08
-4.3405e-07
3.0894e-08
-4.44484e-07
2.99781e-08
-4.54601e-07
2.90564e-08
-4.64399e-07
2.81322e-08
-4.73879e-07
2.72087e-08
-4.83041e-07
2.62885e-08
-4.91888e-07
2.53743e-08
-5.00421e-07
2.44681e-08
-5.08644e-07
2.35719e-08
-5.1656e-07
2.26875e-08
-5.24175e-07
2.18162e-08
-5.31492e-07
2.09592e-08
-5.38516e-07
2.01175e-08
-5.45254e-07
1.92919e-08
-5.5171e-07
1.8483e-08
-5.5789e-07
1.76912e-08
-5.63799e-07
1.69166e-08
-5.69445e-07
1.61593e-08
-5.74832e-07
1.54193e-08
-5.79966e-07
1.46962e-08
-5.84852e-07
1.39898e-08
-5.89497e-07
1.32996e-08
-5.93905e-07
1.26248e-08
-5.98082e-07
1.19648e-08
-6.02032e-07
1.13188e-08
-6.05759e-07
1.06859e-08
-6.09268e-07
1.0065e-08
-6.12562e-07
9.45519e-09
-6.15644e-07
8.85517e-09
-6.18518e-07
8.26379e-09
-6.21186e-07
7.67976e-09
-6.2365e-07
7.10176e-09
-6.25912e-07
6.5284e-09
-6.27972e-07
5.95827e-09
-6.29831e-07
5.38989e-09
-6.31489e-07
4.82175e-09
-6.32947e-07
4.25234e-09
-6.34202e-07
3.6801e-09
-6.35253e-07
3.10345e-09
-6.36099e-07
2.5208e-09
-6.36736e-07
1.93056e-09
-6.37162e-07
1.33112e-09
-6.37372e-07
7.20883e-10
-6.37363e-07
9.82606e-11
-6.3713e-07
-5.38324e-10
-6.36667e-07
-1.19042e-09
-6.35969e-07
-1.85956e-09
-6.35029e-07
-2.54723e-09
-6.33841e-07
-3.25486e-09
-6.32397e-07
-3.98384e-09
-6.3069e-07
-4.7355e-09
-6.28712e-07
-5.51107e-09
-6.26454e-07
-6.31172e-09
-6.23907e-07
-7.13852e-09
-6.21062e-07
-7.99242e-09
-6.1791e-07
-8.87425e-09
-6.1444e-07
-9.78472e-09
-6.10645e-07
-1.07244e-08
-6.06512e-07
-1.16936e-08
-6.02033e-07
-1.26926e-08
-5.97198e-07
-1.37214e-08
-5.91996e-07
-1.47798e-08
-5.86417e-07
-1.58673e-08
-5.80454e-07
-1.69833e-08
-5.74095e-07
-1.81269e-08
-5.67333e-07
-1.92967e-08
-5.6016e-07
-2.04914e-08
-5.52568e-07
-2.17091e-08
-5.4455e-07
-2.29475e-08
-5.361e-07
-2.42043e-08
-5.27214e-07
-2.54764e-08
-5.17888e-07
-2.67607e-08
-5.08119e-07
-2.80535e-08
-4.97907e-07
-2.93508e-08
-4.87251e-07
-3.06479e-08
-4.76154e-07
-3.19401e-08
-4.6462e-07
-3.32221e-08
-4.52656e-07
-3.44879e-08
-4.40268e-07
-3.57316e-08
-4.27467e-07
-3.69463e-08
-4.14267e-07
-3.8125e-08
-4.00681e-07
-3.92603e-08
-3.86729e-07
-4.03442e-08
-3.72431e-07
-4.13685e-08
-3.5781e-07
-4.23245e-08
-3.42894e-07
-4.32032e-08
-3.27711e-07
-4.39953e-08
-3.12296e-07
-4.46913e-08
-2.96683e-07
-4.52814e-08
-2.80914e-07
-4.57556e-08
-2.65029e-07
-4.61039e-08
-2.49077e-07
-4.6316e-08
-2.33105e-07
-4.63819e-08
-2.17167e-07
-4.62916e-08
-2.0132e-07
-4.60351e-08
-1.8562e-07
-4.5603e-08
-1.70132e-07
-4.49861e-08
-1.54918e-07
-4.41759e-08
-1.40046e-07
-4.31644e-08
-1.25585e-07
-4.19446e-08
-1.11604e-07
-4.05108e-08
-9.81761e-08
-3.88585e-08
-8.53717e-08
-3.6985e-08
-7.32623e-08
-3.489e-08
-6.19176e-08
-3.25757e-08
-5.14047e-08
-3.00482e-08
-4.17861e-08
-2.7318e-08
-3.31183e-08
-2.44016e-08
-2.54492e-08
-2.13231e-08
-1.8815e-08
-1.81168e-08
-1.3237e-08
-1.48302e-08
-8.71694e-09
-1.15286e-08
-5.23211e-09
-8.30042e-09
-2.72925e-09
-5.26525e-09
-1.11792e-09
-2.58322e-09
-2.63148e-10
-4.65585e-10
2.32342e-11
8.1167e-10
8.62795e-10
-1.10619e-10
-6.96281e-10
-6.9399e-10
-2.56875e-10
-1.94593e-09
1.47405e-09
-4.01422e-09
4.10688e-09
-7.00661e-09
7.35559e-09
-1.09959e-08
1.09959e-08
-1.60244e-08
1.48536e-08
-2.2109e-08
1.87952e-08
-2.92449e-08
2.27197e-08
-3.74101e-08
2.65512e-08
-4.65686e-08
3.02333e-08
-5.66735e-08
3.37253e-08
-6.76699e-08
3.69981e-08
-7.94968e-08
4.00322e-08
-9.20893e-08
4.28153e-08
-1.0538e-07
4.53408e-08
-1.19299e-07
4.76067e-08
-1.33778e-07
4.96146e-08
-1.48748e-07
5.13687e-08
-1.64141e-07
5.28753e-08
-1.79892e-07
5.41427e-08
-1.95937e-07
5.51803e-08
-2.12216e-07
5.59983e-08
-2.28669e-07
5.66078e-08
-2.45242e-07
5.70205e-08
-2.61882e-07
5.72481e-08
-2.78541e-07
5.73026e-08
-2.95173e-07
5.7196e-08
-3.11734e-07
5.69404e-08
-3.28187e-07
5.65474e-08
-3.44494e-07
5.60286e-08
-3.60622e-07
5.53952e-08
-3.76542e-07
5.46582e-08
-3.92227e-07
5.3828e-08
-4.07651e-07
5.29146e-08
-4.22795e-07
5.19276e-08
-4.37638e-07
5.08763e-08
-4.52165e-07
4.97693e-08
-4.6636e-07
4.86146e-08
-4.80213e-07
4.74201e-08
-4.93713e-07
4.61929e-08
-5.06852e-07
4.49395e-08
-5.19625e-07
4.36664e-08
-5.32026e-07
4.23791e-08
-5.44052e-07
4.10829e-08
-5.55703e-07
3.97826e-08
-5.66976e-07
3.84826e-08
-5.77875e-07
3.71867e-08
-5.88399e-07
3.58986e-08
-5.98552e-07
3.46213e-08
-6.08338e-07
3.33575e-08
-6.1776e-07
3.21097e-08
-6.26824e-07
3.08799e-08
-6.35534e-07
2.96698e-08
-6.43897e-07
2.84808e-08
-6.51919e-07
2.7314e-08
-6.59607e-07
2.61702e-08
-6.66966e-07
2.50501e-08
-6.74003e-07
2.39539e-08
-6.80725e-07
2.28818e-08
-6.8714e-07
2.18336e-08
-6.93252e-07
2.0809e-08
-6.9907e-07
1.98075e-08
-7.04599e-07
1.88285e-08
-7.09845e-07
1.78711e-08
-7.14815e-07
1.69343e-08
-7.19513e-07
1.60169e-08
-7.23945e-07
1.51177e-08
-7.28115e-07
1.42354e-08
-7.32028e-07
1.33683e-08
-7.35688e-07
1.2515e-08
-7.39098e-07
1.16737e-08
-7.42261e-07
1.08426e-08
-7.45179e-07
1.00199e-08
-7.47854e-07
9.20369e-09
-7.50288e-07
8.3919e-09
-7.52481e-07
7.58252e-09
-7.54432e-07
6.77346e-09
-7.56143e-07
5.96256e-09
-7.5761e-07
5.14767e-09
-7.58833e-07
4.32658e-09
-7.5981e-07
3.49708e-09
-7.60536e-07
2.65692e-09
-7.61009e-07
1.80389e-09
-7.61223e-07
9.35735e-10
-7.61175e-07
5.02489e-11
-7.60859e-07
-8.54766e-10
-7.60268e-07
-1.78147e-09
-7.59396e-07
-2.73198e-09
-7.58234e-07
-3.70837e-09
-7.56777e-07
-4.71263e-09
-7.55014e-07
-5.74669e-09
-7.52937e-07
-6.81238e-09
-7.50537e-07
-7.91142e-09
-7.47803e-07
-9.04541e-09
-7.44726e-07
-1.02158e-08
-7.41294e-07
-1.1424e-08
-7.37497e-07
-1.2671e-08
-7.33324e-07
-1.39578e-08
-7.28763e-07
-1.52852e-08
-7.23803e-07
-1.66537e-08
-7.18432e-07
-1.80635e-08
-7.12639e-07
-1.95146e-08
-7.06412e-07
-2.10066e-08
-6.99741e-07
-2.2539e-08
-6.92613e-07
-2.41108e-08
-6.85019e-07
-2.57206e-08
-6.7695e-07
-2.73667e-08
-6.68394e-07
-2.90468e-08
-6.59345e-07
-3.07585e-08
-6.49794e-07
-3.24986e-08
-6.39734e-07
-3.42636e-08
-6.29161e-07
-3.60494e-08
-6.18071e-07
-3.78515e-08
-6.06459e-07
-3.96646e-08
-5.94327e-07
-4.14832e-08
-5.81674e-07
-4.33008e-08
-5.68504e-07
-4.51106e-08
-5.5482e-07
-4.69053e-08
-5.40632e-07
-4.86766e-08
-5.25947e-07
-5.04159e-08
-5.1078e-07
-5.2114e-08
-4.95144e-07
-5.3761e-08
-4.79058e-07
-5.53464e-08
-4.62542e-07
-5.68593e-08
-4.45623e-07
-5.8288e-08
-4.28327e-07
-5.96207e-08
-4.10685e-07
-6.08449e-08
-3.92733e-07
-6.19475e-08
-3.74509e-07
-6.29154e-08
-3.56055e-07
-6.37351e-08
-3.37418e-07
-6.43928e-08
-3.18647e-07
-6.48746e-08
-2.99797e-07
-6.51665e-08
-2.80924e-07
-6.52547e-08
-2.6209e-07
-6.51255e-08
-2.4336e-07
-6.47655e-08
-2.24801e-07
-6.41617e-08
-2.06485e-07
-6.33018e-08
-1.88487e-07
-6.21745e-08
-1.70882e-07
-6.07693e-08
-1.53749e-07
-5.90771e-08
-1.37169e-07
-5.70906e-08
-1.21223e-07
-5.48045e-08
-1.05992e-07
-5.22161e-08
-9.15565e-08
-4.93258e-08
-7.79942e-08
-4.6138e-08
-6.53802e-08
-4.26622e-08
-5.37841e-08
-3.89141e-08
-4.32686e-08
-3.49171e-08
-3.38866e-08
-3.07051e-08
-2.56786e-08
-2.63248e-08
-1.86695e-08
-2.18393e-08
-1.28644e-08
-1.73336e-08
-8.24474e-09
-1.29201e-08
-4.76335e-09
-8.74664e-09
-2.33959e-09
-5.00696e-09
-8.54547e-10
-1.95064e-09
-1.45833e-10
1.02967e-10
7.16954e-10
-2.68839e-10
-4.27453e-10
-1.25588e-09
7.30161e-10
-3.11178e-09
3.32996e-09
-5.95481e-09
6.94991e-09
-9.87237e-09
1.12732e-08
-1.49231e-08
1.60466e-08
-2.11394e-08
2.10699e-08
-2.85308e-08
2.61866e-08
-3.7087e-08
3.12759e-08
-4.67809e-08
3.62451e-08
-5.75719e-08
4.10243e-08
-6.94084e-08
4.55617e-08
-8.22302e-08
4.98199e-08
-9.59708e-08
5.37728e-08
-1.10559e-07
5.74038e-08
-1.25922e-07
6.07031e-08
-1.41982e-07
6.36673e-08
-1.58665e-07
6.62972e-08
-1.75894e-07
6.85974e-08
-1.93594e-07
7.05756e-08
-2.11693e-07
7.22416e-08
-2.30119e-07
7.36069e-08
-2.48806e-07
7.46847e-08
-2.67687e-07
7.54889e-08
-2.86701e-07
7.60343e-08
-3.05789e-07
7.63359e-08
-3.24895e-07
7.64094e-08
-3.4397e-07
7.62702e-08
-3.62963e-07
7.59339e-08
-3.81832e-07
7.54158e-08
-4.00534e-07
7.4731e-08
-4.19033e-07
7.38941e-08
-4.37294e-07
7.29194e-08
-4.55287e-07
7.18207e-08
-4.72984e-07
7.06113e-08
-4.9036e-07
6.93037e-08
-5.07393e-07
6.791e-08
-5.24066e-07
6.64417e-08
-5.40361e-07
6.49096e-08
-5.56264e-07
6.33238e-08
-5.71765e-07
6.16938e-08
-5.86854e-07
6.00286e-08
-6.01524e-07
5.83362e-08
-6.1577e-07
5.66243e-08
-6.29587e-07
5.48999e-08
-6.42973e-07
5.31694e-08
-6.55929e-07
5.14385e-08
-6.68455e-07
4.97126e-08
-6.80553e-07
4.79962e-08
-6.92225e-07
4.62936e-08
-7.03476e-07
4.46085e-08
-7.1431e-07
4.2944e-08
-7.24733e-07
4.13029e-08
-7.34751e-07
3.96874e-08
-7.4437e-07
3.80995e-08
-7.53596e-07
3.65407e-08
-7.62438e-07
3.5012e-08
-7.70903e-07
3.35144e-08
-7.78997e-07
3.20482e-08
-7.86729e-07
3.06136e-08
-7.94106e-07
2.92105e-08
-8.01135e-07
2.78384e-08
-8.07824e-07
2.64968e-08
-8.14181e-07
2.51848e-08
-8.20211e-07
2.39012e-08
-8.25921e-07
2.26448e-08
-8.31318e-07
2.1414e-08
-8.36408e-07
2.02072e-08
-8.41195e-07
1.90225e-08
-8.45685e-07
1.78581e-08
-8.49881e-07
1.67117e-08
-8.53789e-07
1.55812e-08
-8.5741e-07
1.44641e-08
-8.60748e-07
1.33581e-08
-8.63805e-07
1.22606e-08
-8.66582e-07
1.11689e-08
-8.6908e-07
1.00804e-08
-8.71299e-07
8.99226e-09
-8.73238e-07
7.90166e-09
-8.74896e-07
6.80574e-09
-8.76271e-07
5.70159e-09
-8.7736e-07
4.58628e-09
-8.7816e-07
3.45686e-09
-8.78667e-07
2.31039e-09
-8.78875e-07
1.14392e-09
-8.78779e-07
-4.54655e-11
-8.78373e-07
-1.26067e-09
-8.7765e-07
-2.50454e-09
-8.76602e-07
-3.77986e-09
-8.75222e-07
-5.08936e-09
-8.73498e-07
-6.43565e-09
-8.71424e-07
-7.82126e-09
-8.68988e-07
-9.2486e-09
-8.66179e-07
-1.07199e-08
-8.62987e-07
-1.22373e-08
-8.594e-07
-1.38027e-08
-8.55407e-07
-1.54178e-08
-8.50994e-07
-1.7084e-08
-8.46149e-07
-1.88026e-08
-8.40859e-07
-2.05746e-08
-8.35113e-07
-2.24005e-08
-8.28895e-07
-2.42807e-08
-8.22195e-07
-2.62151e-08
-8.14998e-07
-2.82032e-08
-8.07293e-07
-3.02442e-08
-7.99067e-07
-3.23367e-08
-7.90309e-07
-3.44789e-08
-7.81007e-07
-3.66684e-08
-7.71152e-07
-3.89024e-08
-7.60733e-07
-4.11773e-08
-7.49742e-07
-4.34891e-08
-7.38173e-07
-4.58331e-08
-7.26019e-07
-4.82037e-08
-7.13275e-07
-5.0595e-08
-6.9994e-07
-5.3e-08
-6.86012e-07
-5.54113e-08
-6.71492e-07
-5.78205e-08
-6.56384e-07
-6.02185e-08
-6.40694e-07
-6.25955e-08
-6.2443e-07
-6.49407e-08
-6.07603e-07
-6.72427e-08
-5.90228e-07
-6.94893e-08
-5.72321e-07
-7.16674e-08
-5.53904e-07
-7.37633e-08
-5.35001e-07
-7.57626e-08
-5.15639e-07
-7.765e-08
-4.9585e-07
-7.94098e-08
-4.75669e-07
-8.10255e-08
-4.55137e-07
-8.24803e-08
-4.34295e-07
-8.37568e-08
-4.13193e-07
-8.48373e-08
-3.91882e-07
-8.57038e-08
-3.70418e-07
-8.63382e-08
-3.48863e-07
-8.67223e-08
-3.27279e-07
-8.68382e-08
-3.05737e-07
-8.6668e-08
-2.84307e-07
-8.61946e-08
-2.63068e-07
-8.54013e-08
-2.42097e-07
-8.42725e-08
-2.21478e-07
-8.27936e-08
-2.01296e-07
-8.09516e-08
-1.81637e-07
-7.87354e-08
-1.62592e-07
-7.61361e-08
-1.44249e-07
-7.31477e-08
-1.26697e-07
-6.97677e-08
-1.10025e-07
-6.59976e-08
-9.43188e-08
-6.18445e-08
-7.96594e-08
-5.73216e-08
-6.61232e-08
-5.24503e-08
-5.37785e-08
-4.72618e-08
-4.26837e-08
-4.18e-08
-3.28845e-08
-3.6124e-08
-2.4411e-08
-3.03128e-08
-1.72748e-08
-2.44699e-08
-1.14651e-08
-1.87298e-08
-6.94565e-09
-1.32661e-08
-3.6518e-09
-8.30082e-09
-1.48758e-09
-4.11486e-09
-3.24291e-10
-1.06032e-09
3.92657e-10
-4.29693e-10
2.23664e-12
-1.83504e-09
2.13549e-09
-4.32055e-09
5.81548e-09
-7.97134e-09
1.06007e-08
-1.28504e-08
1.61522e-08
-1.89983e-08
2.21945e-08
-2.64341e-08
2.85057e-08
-3.51571e-08
3.49096e-08
-4.51489e-08
4.12677e-08
-5.6376e-08
4.74722e-08
-6.87918e-08
5.34402e-08
-8.23394e-08
5.91093e-08
-9.69532e-08
6.44337e-08
-1.12561e-07
6.9381e-08
-1.29087e-07
7.39297e-08
-1.46451e-07
7.80671e-08
-1.64571e-07
8.17876e-08
-1.83366e-07
8.50916e-08
-2.02752e-07
8.79839e-08
-2.2265e-07
9.04732e-08
-2.42979e-07
9.25709e-08
-2.63664e-07
9.42911e-08
-2.84628e-07
9.56495e-08
-3.05803e-07
9.66632e-08
-3.27118e-07
9.73502e-08
-3.48512e-07
9.77292e-08
-3.69922e-07
9.78196e-08
-3.91292e-07
9.76406e-08
-4.1257e-07
9.72116e-08
-4.33706e-07
9.65517e-08
-4.54655e-07
9.56799e-08
-4.75375e-07
9.46146e-08
-4.9583e-07
9.33739e-08
-5.15984e-07
9.19749e-08
-5.35807e-07
9.04345e-08
-5.55272e-07
8.87687e-08
-5.74355e-07
8.69927e-08
-5.93034e-07
8.51211e-08
-6.11292e-07
8.31674e-08
-6.29113e-07
8.11447e-08
-6.46484e-07
7.9065e-08
-6.63395e-07
7.69395e-08
-6.79838e-07
7.47788e-08
-6.95806e-07
7.25925e-08
-7.11296e-07
7.03895e-08
-7.26304e-07
6.8178e-08
-7.40831e-07
6.59654e-08