/*--------------------------------*- C++ -*----------------------------------*\
  =========                 |
  \\      /  F ield         | OpenFOAM: The Open Source CFD Toolbox
   \\    /   O peration     | Website:  https://openfoam.org
    \\  /    A nd           | Version:  7
     \\/     M anipulation  |
\*---------------------------------------------------------------------------*/
FoamFile
{
    version     2.0;
    format      ascii;
    class       surfaceScalarField;
    location    "0.075";
    object      phi;
}
// * * * * * * * * * * * * * * * * * * * * * * * * * * * * * * * * * * * * * //

dimensions      [0 3 -1 0 0 0 0];

internalField   nonuniform List<scalar> 
101920
(
1.47168e-13
-1.51119e-13
5.52656e-13
-4.052e-13
1.30011e-12
-7.46875e-13
2.1439e-12
-8.42198e-13
2.8962e-12
-7.52536e-13
3.42526e-12
-5.29141e-13
3.67847e-12
-2.53325e-13
3.61385e-12
6.40752e-14
3.23509e-12
3.78871e-13
2.55062e-12
6.85015e-13
1.5786e-12
9.72882e-13
3.33214e-13
1.24559e-12
-1.17127e-12
1.50447e-12
-2.92225e-12
1.75106e-12
-4.90557e-12
1.98338e-12
-7.10112e-12
2.19585e-12
-9.4873e-12
2.38648e-12
-1.20495e-11
2.56233e-12
-1.47752e-11
2.72541e-12
-1.76491e-11
2.87277e-12
-2.0654e-11
3.00421e-12
-2.37707e-11
3.11647e-12
-2.69829e-11
3.2123e-12
-3.02829e-11
3.30024e-12
-3.3665e-11
3.38236e-12
-3.71194e-11
3.45404e-12
-4.06316e-11
3.51161e-12
-4.41871e-11
3.55469e-12
-4.7775e-11
3.58691e-12
-5.13872e-11
3.61129e-12
-5.50162e-11
3.62815e-12
-5.86557e-11
3.63893e-12
-6.2301e-11
3.64534e-12
-6.59463e-11
3.64594e-12
-6.95836e-11
3.63845e-12
-7.32053e-11
3.62234e-12
-7.68037e-11
3.59846e-12
-8.03724e-11
3.56857e-12
-8.39075e-11
3.53509e-12
-8.74041e-11
3.4974e-12
-9.0855e-11
3.45226e-12
-9.42536e-11
3.39976e-12
-9.75963e-11
3.34354e-12
-1.00881e-10
3.28493e-12
-1.04103e-10
3.22167e-12
-1.07258e-10
3.15317e-12
-1.1034e-10
3.08142e-12
-1.13348e-10
3.00745e-12
-1.1628e-10
2.93207e-12
-1.19137e-10
2.85687e-12
-1.21919e-10
2.78104e-12
-1.24623e-10
2.70229e-12
-1.27245e-10
2.62169e-12
-1.29787e-10
2.54151e-12
-1.32247e-10
2.46082e-12
-1.34626e-10
2.37816e-12
-1.3692e-10
2.29426e-12
-1.39129e-10
2.20993e-12
-1.41252e-10
2.12456e-12
-1.43288e-10
2.03686e-12
-1.45233e-10
1.94613e-12
-1.47086e-10
1.85314e-12
-1.48846e-10
1.75953e-12
-1.50513e-10
1.66638e-12
-1.52087e-10
1.57292e-12
-1.53564e-10
1.47706e-12
-1.54942e-10
1.37799e-12
-1.5622e-10
1.27712e-12
-1.57397e-10
1.17616e-12
-1.58472e-10
1.07569e-12
-1.59447e-10
9.75252e-13
-1.60321e-10
8.74523e-13
-1.61095e-10
7.74309e-13
-1.61771e-10
6.74863e-13
-1.62345e-10
5.74922e-13
-1.62818e-10
4.73982e-13
-1.63188e-10
3.72442e-13
-1.63456e-10
2.69499e-13
-1.63621e-10
1.64401e-13
-1.63681e-10
5.84317e-14
-1.63635e-10
-4.64767e-14
-1.63487e-10
-1.49719e-13
-1.63235e-10
-2.52394e-13
-1.62879e-10
-3.56395e-13
-1.62417e-10
-4.62424e-13
-1.61848e-10
-5.68897e-13
-1.61174e-10
-6.73629e-13
-1.60396e-10
-7.7596e-13
-1.59518e-10
-8.76817e-13
-1.58539e-10
-9.7739e-13
-1.57462e-10
-1.0776e-12
-1.56286e-10
-1.17636e-12
-1.55013e-10
-1.27393e-12
-1.53642e-10
-1.37218e-12
-1.52171e-10
-1.47127e-12
-1.50603e-10
-1.56854e-12
-1.48941e-10
-1.66212e-12
-1.47187e-10
-1.75381e-12
-1.4534e-10
-1.8468e-12
-1.43398e-10
-1.94186e-12
-1.4136e-10
-2.03684e-12
-1.3923e-10
-2.12907e-12
-1.37011e-10
-2.21809e-12
-1.34705e-10
-2.30554e-12
-1.32315e-10
-2.39231e-12
-1.2984e-10
-2.47751e-12
-1.2728e-10
-2.56024e-12
-1.24638e-10
-2.64092e-12
-1.21915e-10
-2.72019e-12
-1.19116e-10
-2.79775e-12
-1.16243e-10
-2.87267e-12
-1.13299e-10
-2.94468e-12
-1.10285e-10
-3.01451e-12
-1.07203e-10
-3.08297e-12
-1.04054e-10
-3.14962e-12
-1.00841e-10
-3.21265e-12
-9.75687e-11
-3.27111e-12
-9.4241e-11
-3.32657e-12
-9.08592e-11
-3.38117e-12
-8.74254e-11
-3.43402e-12
-8.39446e-11
-3.48128e-12
-8.04242e-11
-3.52025e-12
-7.68713e-11
-3.5524e-12
-7.32892e-11
-3.58154e-12
-6.96801e-11
-3.60876e-12
-6.60493e-11
-3.63065e-12
-6.24055e-11
-3.64351e-12
-5.87576e-11
-3.64719e-12
-5.51139e-11
-3.64341e-12
-5.14823e-11
-3.63228e-12
-4.78711e-11
-3.61233e-12
-4.42887e-11
-3.58292e-12
-4.07437e-11
-3.54465e-12
-3.72455e-11
-3.49743e-12
-3.38059e-11
-3.43924e-12
-3.04387e-11
-3.36776e-12
-2.71565e-11
-3.28288e-12
-2.39697e-11
-3.18679e-12
-2.0888e-11
-3.08089e-12
-1.79243e-11
-2.96307e-12
-1.50944e-11
-2.82959e-12
-1.24149e-11
-2.67924e-12
-9.90065e-12
-2.51408e-12
-7.56484e-12
-2.33579e-12
-5.42234e-12
-2.14283e-12
-3.49039e-12
-1.93228e-12
-1.78644e-12
-1.70392e-12
-3.24937e-13
-1.46154e-12
8.84741e-13
-1.21017e-12
1.83657e-12
-9.52235e-13
2.52464e-12
-6.87761e-13
2.94349e-12
-4.18154e-13
3.0928e-12
-1.4915e-13
2.9834e-12
1.08619e-13
2.64038e-12
3.41934e-13
2.10428e-12
5.35818e-13
1.4382e-12
6.66945e-13
7.44195e-13
6.95085e-13
1.89244e-13
5.55403e-13
1.89302e-13
5.94953e-13
-7.45776e-13
1.62557e-12
-1.43697e-12
3.01467e-12
-2.13709e-12
4.5327e-12
-2.35977e-12
5.78565e-12
-2.0048e-12
6.49782e-12
-1.24181e-12
6.50894e-12
-2.63999e-13
5.76116e-12
8.11943e-13
4.22262e-12
1.91617e-12
1.89664e-12
3.00993e-12
-1.1971e-12
4.06619e-12
-5.03078e-12
5.0793e-12
-9.57103e-12
6.04479e-12
-1.4778e-11
6.95773e-12
-2.06147e-11
7.81973e-12
-2.70411e-11
8.6216e-12
-3.40134e-11
9.35842e-12
-4.14876e-11
1.00371e-11
-4.94187e-11
1.06578e-11
-5.77648e-11
1.12202e-11
-6.64888e-11
1.17281e-11
-7.55516e-11
1.2179e-11
-8.49151e-11
1.25751e-11
-9.45422e-11
1.29266e-11
-1.04397e-10
1.32371e-11
-1.14446e-10
1.35035e-11
-1.24658e-10
1.37242e-11
-1.35002e-10
1.39001e-11
-1.45448e-10
1.40348e-11
-1.55971e-10
1.4135e-11
-1.66547e-10
1.42047e-11
-1.77153e-10
1.42452e-11
-1.87767e-10
1.42584e-11
-1.98368e-10
1.42447e-11
-2.08934e-10
1.42034e-11
-2.19447e-10
1.41358e-11
-2.29891e-10
1.40429e-11
-2.40247e-10
1.39255e-11
-2.50501e-10
1.37873e-11
-2.60636e-10
1.36308e-11
-2.7064e-10
1.34544e-11
-2.805e-10
1.32579e-11
-2.90202e-10
1.3045e-11
-2.99735e-10
1.28179e-11
-3.09088e-10
1.25759e-11
-3.18252e-10
1.23186e-11
-3.2722e-10
1.20489e-11
-3.35984e-10
1.17698e-11
-3.44535e-10
1.14831e-11
-3.52867e-10
1.11905e-11
-3.60976e-10
1.08919e-11
-3.68857e-10
1.05854e-11
-3.76507e-10
1.02718e-11
-3.8392e-10
9.95416e-12
-3.91091e-10
9.63266e-12
-3.98018e-10
9.30506e-12
-4.04696e-10
8.97104e-12
-4.1112e-10
8.63192e-12
-4.17287e-10
8.28849e-12
-4.23192e-10
7.94038e-12
-4.28833e-10
7.58655e-12
-4.34207e-10
7.22658e-12
-4.39309e-10
6.8615e-12
-4.44136e-10
6.49309e-12
-4.48684e-10
6.1217e-12
-4.52951e-10
5.74546e-12
-4.56934e-10
5.36309e-12
-4.60631e-10
4.97569e-12
-4.64038e-10
4.58517e-12
-4.67155e-10
4.19321e-12
-4.6998e-10
3.80075e-12
-4.72511e-10
3.40751e-12
-4.74749e-10
3.01336e-12
-4.76693e-10
2.61851e-12
-4.78343e-10
2.22237e-12
-4.79696e-10
1.82443e-12
-4.80752e-10
1.42496e-12
-4.81507e-10
1.02364e-12
-4.81962e-10
6.20029e-13
-4.82117e-10
2.1512e-13
-4.81972e-10
-1.89589e-13
-4.81527e-10
-5.93537e-13
-4.8078e-10
-9.97265e-13
-4.79732e-10
-1.40221e-12
-4.78384e-10
-1.80929e-12
-4.76736e-10
-2.21697e-12
-4.7479e-10
-2.62189e-12
-4.72546e-10
-3.02171e-12
-4.70008e-10
-3.41658e-12
-4.67178e-10
-3.80843e-12
-4.64056e-10
-4.19896e-12
-4.60644e-10
-4.58766e-12
-4.56944e-10
-4.97313e-12
-4.5296e-10
-5.35567e-12
-4.48694e-10
-5.73624e-12
-4.44149e-10
-6.11387e-12
-4.39324e-10
-6.48685e-12
-4.34223e-10
-6.85566e-12
-4.28847e-10
-7.22244e-12
-4.23203e-10
-7.58762e-12
-4.17293e-10
-7.94888e-12
-4.1112e-10
-8.3032e-12
-4.04687e-10
-8.64987e-12
-3.97997e-10
-8.99121e-12
-3.91056e-10
-9.32941e-12
-3.83869e-10
-9.66362e-12
-3.7644e-10
-9.99098e-12
-3.68775e-10
-1.03094e-11
-3.60878e-10
-1.06186e-11
-3.52756e-10
-1.09196e-11
-3.44415e-10
-1.12126e-11
-3.3586e-10
-1.14972e-11
-3.271e-10
-1.17729e-11
-3.18142e-10
-1.20395e-11
-3.08995e-10
-1.22969e-11
-2.99665e-10
-1.25435e-11
-2.90161e-10
-1.27771e-11
-2.80491e-10
-1.2997e-11
-2.70668e-10
-1.32038e-11
-2.60703e-10
-1.33971e-11
-2.50608e-10
-1.3574e-11
-2.40396e-10
-1.3731e-11
-2.3008e-10
-1.38672e-11
-2.19677e-10
-1.39844e-11
-2.09203e-10
-1.40829e-11
-1.98676e-10
-1.41589e-11
-1.88114e-10
-1.42069e-11
-1.77538e-10
-1.4224e-11
-1.66969e-10
-1.4211e-11
-1.56431e-10
-1.41684e-11
-1.45949e-10
-1.4094e-11
-1.35548e-10
-1.39844e-11
-1.25257e-10
-1.38372e-11
-1.15105e-10
-1.36505e-11
-1.05122e-10
-1.34223e-11
-9.53383e-11
-1.31499e-11
-8.57892e-11
-1.28313e-11
-7.65102e-11
-1.24658e-11
-6.75378e-11
-1.20532e-11
-5.89089e-11
-1.15915e-11
-5.06611e-11
-1.10772e-11
-4.28335e-11
-1.05071e-11
-3.54669e-11
-9.8806e-12
-2.86032e-11
-9.19892e-12
-2.2283e-11
-8.46239e-12
-1.65447e-11
-7.6706e-12
-1.14237e-11
-6.82523e-12
-6.95318e-12
-5.9321e-12
-3.16326e-12
-5.00043e-12
-7.68825e-14
-4.0399e-12
2.29407e-12
-3.06026e-12
3.95061e-12
-2.07508e-12
4.90828e-12
-1.10561e-12
5.20176e-12
-1.83249e-13
4.89409e-12
6.49933e-13
4.0883e-12
1.34047e-12
2.93884e-12
1.81542e-12
1.66346e-12
1.97086e-12
5.54488e-13
1.66556e-12
7.44032e-13
5.53629e-13
-1.29883e-12
1.59236e-12
-2.47644e-12
2.89093e-12
-3.43636e-12
4.2064e-12
-3.67598e-12
5.12624e-12
-2.92447e-12
5.31059e-12
-1.4261e-12
4.53249e-12
5.14522e-13
2.66969e-12
2.67584e-12
-3.41176e-13
4.92774e-12
-4.51631e-12
7.18524e-12
-9.84931e-12
9.39905e-12
-1.6312e-11
1.15423e-11
-2.38636e-11
1.35966e-11
-3.24535e-11
1.55481e-11
-4.2023e-11
1.73896e-11
-5.25147e-11
1.91133e-11
-6.38704e-11
2.07134e-11
-7.60265e-11
2.21917e-11
-8.89174e-11
2.35482e-11
-1.02478e-10
2.47811e-11
-1.16643e-10
2.58936e-11
-1.31353e-10
2.68886e-11
-1.46548e-10
2.77707e-11
-1.62171e-10
2.85491e-11
-1.78164e-10
2.92294e-11
-1.94474e-10
2.9812e-11
-2.1105e-10
3.02988e-11
-2.27844e-10
3.06929e-11
-2.44809e-10
3.09995e-11
-2.61901e-10
3.12265e-11
-2.79078e-10
3.13814e-11
-2.963e-10
3.14686e-11
-3.13532e-10
3.14912e-11
-3.30738e-10
3.14516e-11
-3.47887e-10
3.13519e-11
-3.64948e-10
3.11961e-11
-3.81892e-10
3.09875e-11
-3.98694e-10
3.07285e-11
-4.15327e-10
3.04227e-11
-4.31769e-10
3.00737e-11
-4.47997e-10
2.96833e-11
-4.63993e-10
2.92538e-11
-4.79739e-10
2.87889e-11
-4.95214e-10
2.8292e-11
-5.10404e-10
2.77645e-11
-5.25292e-10
2.72071e-11
-5.39866e-10
2.66233e-11
-5.54114e-10
2.60171e-11
-5.68025e-10
2.53915e-11
-5.81585e-10
2.47489e-11
-5.94784e-10
2.40904e-11
-6.07613e-10
2.34149e-11
-6.20064e-10
2.27235e-11
-6.32129e-10
2.20191e-11
-6.43799e-10
2.13028e-11
-6.55067e-10
2.05741e-11
-6.65927e-10
1.98326e-11
-6.76372e-10
1.90787e-11
-6.86396e-10
1.83128e-11
-6.95992e-10
1.75358e-11
-7.05154e-10
1.67481e-11
-7.13878e-10
1.59498e-11
-7.22158e-10
1.51416e-11
-7.2999e-10
1.43247e-11
-7.37369e-10
1.34997e-11
-7.4429e-10
1.26658e-11
-7.5075e-10
1.18227e-11
-7.56746e-10
1.09715e-11
-7.62273e-10
1.01135e-11
-7.6733e-10
9.25039e-12
-7.71914e-10
8.38393e-12
-7.76021e-10
7.51473e-12
-7.79649e-10
6.6426e-12
-7.82795e-10
5.76745e-12
-7.8546e-10
4.88896e-12
-7.87641e-10
4.00683e-12
-7.89338e-10
3.12146e-12
-7.9055e-10
2.2333e-12
-7.91274e-10
1.34279e-12
-7.9151e-10
4.51061e-13
-7.9126e-10
-4.40678e-13
-7.90522e-10
-1.33192e-12
-7.89297e-10
-2.2228e-12
-7.87586e-10
-3.11383e-12
-7.85388e-10
-4.00526e-12
-7.82707e-10
-4.89602e-12
-7.79543e-10
-5.7836e-12
-7.75899e-10
-6.66552e-12
-7.71775e-10
-7.54061e-12
-7.67175e-10
-8.40925e-12
-7.62102e-10
-9.27285e-12
-7.56558e-10
-1.01322e-11
-7.50545e-10
-1.09866e-11
-7.44067e-10
-1.18347e-11
-7.37128e-10
-1.26756e-11
-7.29733e-10
-1.35086e-11
-7.21887e-10
-1.43333e-11
-7.13592e-10
-1.51504e-11
-7.04852e-10
-1.59609e-11
-6.95674e-10
-1.67646e-11
-6.86063e-10
-1.75593e-11
-6.76025e-10
-1.8342e-11
-6.65567e-10
-1.91108e-11
-6.54694e-10
-1.98664e-11
-6.43412e-10
-2.06104e-11
-6.31729e-10
-2.13433e-11
-6.19653e-10
-2.20636e-11
-6.07193e-10
-2.27683e-11
-5.94358e-10
-2.34548e-11
-5.81156e-10
-2.41225e-11
-5.67597e-10
-2.47717e-11
-5.53693e-10
-2.54022e-11
-5.39453e-10
-2.60128e-11
-5.2489e-10
-2.66019e-11
-5.10018e-10
-2.71679e-11
-4.94851e-10
-2.77093e-11
-4.79404e-10
-2.82242e-11
-4.63691e-10
-2.87103e-11
-4.4773e-10
-2.91656e-11
-4.31539e-10
-2.95874e-11
-4.1514e-10
-2.99725e-11
-3.98553e-10
-3.03173e-11
-3.818e-10
-3.06194e-11
-3.64907e-10
-3.08775e-11
-3.479e-10
-3.10891e-11
-3.30808e-10
-3.12495e-11
-3.13662e-10
-3.13527e-11
-2.96494e-10
-3.13933e-11
-2.79339e-10
-3.1368e-11
-2.62232e-10
-3.12748e-11
-2.45215e-10
-3.11107e-11
-2.28327e-10
-3.08708e-11
-2.11615e-10
-3.05498e-11
-1.95124e-10
-3.0142e-11
-1.78904e-10
-2.96426e-11
-1.63006e-10
-2.9048e-11
-1.47481e-10
-2.83552e-11
-1.32385e-10
-2.75606e-11
-1.17778e-10
-2.66606e-11
-1.03717e-10
-2.56512e-11
-9.02652e-11
-2.45289e-11
-7.7481e-11
-2.32911e-11
-6.54252e-11
-2.19366e-11
-5.4159e-11
-2.04652e-11
-4.37432e-11
-1.88779e-11
-3.42357e-11
-1.71782e-11
-2.56889e-11
-1.53727e-11
-1.81486e-11
-1.34727e-11
-1.16545e-11
-1.1494e-11
-6.23755e-12
-9.45623e-12
-1.9148e-12
-7.38348e-12
1.31678e-12
-5.30825e-12
3.48527e-12
-3.27544e-12
4.64857e-12
-1.34638e-12
4.90169e-12
3.98038e-13
4.38868e-12
1.85431e-12
3.31575e-12
2.88834e-12
1.96158e-12
3.32493e-12
6.89994e-13
2.93754e-12
1.43428e-12
4.12571e-13
-1.71005e-12
1.09209e-12
-3.15548e-12
1.82812e-12
-4.17319e-12
2.38139e-12
-4.22856e-12
2.38387e-12
-2.92698e-12
1.49282e-12
-5.35886e-13
-5.49388e-13
2.5562e-12
-3.91342e-12
6.03959e-12
-8.69643e-12
9.71138e-12
-1.49483e-11
1.34372e-11
-2.26748e-11
1.71258e-11
-3.18554e-11
2.07226e-11
-4.24479e-11
2.41891e-11
-5.43963e-11
2.74964e-11
-6.76344e-11
3.06279e-11
-8.20894e-11
3.3569e-11
-9.76841e-11
3.63087e-11
-1.14339e-10
3.88469e-11
-1.31974e-10
4.11824e-11
-1.50507e-10
4.33142e-11
-1.69859e-10
4.5245e-11
-1.89948e-10
4.69774e-11
-2.10692e-10
4.85154e-11
-2.32011e-10
4.98688e-11
-2.53829e-10
5.10473e-11
-2.76073e-10
5.2057e-11
-2.98679e-10
5.29051e-11
-3.21584e-10
5.35974e-11
-3.44725e-10
5.41405e-11
-3.68043e-10
5.45437e-11
-3.9148e-10
5.48169e-11
-4.14979e-10
5.49675e-11
-4.38491e-10
5.50026e-11
-4.61967e-10
5.49289e-11
-4.85367e-10
5.47514e-11
-5.08648e-10
5.44768e-11
-5.31772e-10
5.41112e-11
-5.54704e-10
5.36595e-11
-5.77409e-10
5.31268e-11
-5.99855e-10
5.25194e-11
-6.22013e-10
5.18416e-11
-6.43855e-10
5.10971e-11
-6.65358e-10
5.02912e-11
-6.86496e-10
4.94295e-11
-7.07248e-10
4.85161e-11
-7.27595e-10
4.75535e-11
-7.47516e-10
4.65453e-11
-7.66994e-10
4.54964e-11
-7.86013e-10
4.44105e-11
-8.04556e-10
4.32915e-11
-8.22608e-10
4.21424e-11
-8.40157e-10
4.09641e-11
-8.57191e-10
3.97575e-11
-8.73697e-10
3.85247e-11
-8.89663e-10
3.7268e-11
-9.05079e-10
3.59885e-11
-9.19935e-10
3.46872e-11
-9.34221e-10
3.33649e-11
-9.4793e-10
3.20226e-11
-9.61055e-10
3.06609e-11
-9.73587e-10
2.92802e-11
-9.85518e-10
2.78811e-11
-9.96841e-10
2.64651e-11
-1.00755e-09
2.50339e-11
-1.01764e-09
2.35882e-11
-1.0271e-09
2.21284e-11
-1.03593e-09
2.06549e-11
-1.04413e-09
1.91687e-11
-1.05169e-09
1.76711e-11
-1.0586e-09
1.61638e-11
-1.06486e-09
1.46488e-11
-1.07048e-09
1.31273e-11
-1.07544e-09
1.15996e-11
-1.07974e-09
1.00664e-11
-1.08337e-09
8.52807e-12
-1.08635e-09
6.98426e-12
-1.08866e-09
5.43531e-12
-1.09031e-09
3.88232e-12
-1.09129e-09
2.32636e-12
-1.09161e-09
7.6861e-13
-1.09126e-09
-7.89848e-13
-1.09025e-09
-2.34836e-12
-1.08856e-09
-3.90628e-12
-1.08621e-09
-5.4627e-12
-1.0832e-09
-7.01679e-12
-1.07953e-09
-8.56759e-12
-1.0752e-09
-1.01135e-11
-1.07021e-09
-1.16527e-11
-1.06457e-09
-1.31839e-11
-1.05827e-09
-1.47059e-11
-1.05133e-09
-1.62184e-11
-1.04374e-09
-1.77216e-11
-1.03551e-09
-1.92153e-11
-1.02665e-09
-2.06986e-11
-1.01715e-09
-2.21708e-11
-1.00703e-09
-2.36307e-11
-9.96287e-10
-2.50766e-11
-9.84931e-10
-2.65076e-11
-9.7297e-10
-2.79231e-11
-9.60411e-10
-2.93234e-11
-9.4726e-10
-3.07078e-11
-9.33525e-10
-3.2075e-11
-9.19213e-10
-3.34226e-11
-9.04332e-10
-3.4748e-11
-8.88895e-10
-3.605e-11
-8.7291e-10
-3.73284e-11
-8.5639e-10
-3.85827e-11
-8.39345e-10
-3.98116e-11
-8.21786e-10
-4.10123e-11
-8.03726e-10
-4.21819e-11
-7.85178e-10
-4.33189e-11
-7.66159e-10
-4.44218e-11
-7.46684e-10
-4.54889e-11
-7.26769e-10
-4.65177e-11
-7.06432e-10
-4.75052e-11
-6.85692e-10
-4.84487e-11
-6.6457e-10
-4.93452e-11
-6.43088e-10
-5.01911e-11
-6.21272e-10
-5.09822e-11
-5.99144e-10
-5.17144e-11
-5.76734e-10
-5.23832e-11
-5.54067e-10
-5.29833e-11
-5.31178e-10
-5.35094e-11
-5.08099e-10
-5.39562e-11
-4.8487e-10
-5.43189e-11
-4.61527e-10
-5.45917e-11
-4.3811e-10
-5.47674e-11
-4.14665e-10
-5.48382e-11
-3.91237e-10
-5.47965e-11
-3.67877e-10
-5.46356e-11
-3.4464e-10
-5.43492e-11
-3.21579e-10
-5.39308e-11
-2.98755e-10
-5.33728e-11
-2.7623e-10
-5.26668e-11
-2.54069e-10
-5.18043e-11
-2.32339e-10
-5.07779e-11
-2.11113e-10
-4.95815e-11
-1.90463e-10
-4.82095e-11
-1.70467e-10
-4.66564e-11
-1.51202e-10
-4.49163e-11
-1.32746e-10
-4.29844e-11
-1.15178e-10
-4.08575e-11
-9.85801e-11
-3.85346e-11
-8.30286e-11
-3.60168e-11
-6.85984e-11
-3.33081e-11
-5.53608e-11
-3.04157e-11
-4.33823e-11
-2.73517e-11
-3.27219e-11
-2.4134e-11
-2.34281e-11
-2.07884e-11
-1.55349e-11
-1.73491e-11
-9.05797e-12
-1.38596e-11
-3.99038e-12
-1.03759e-11
-2.96641e-13
-6.97049e-12
2.09431e-12
-3.73861e-12
3.29749e-12
-8.05207e-13
3.48196e-12
1.67061e-12
2.88156e-12
3.48933e-12
1.80601e-12
4.40052e-12
6.60332e-13
4.08314e-12
2.09479e-12
2.46849e-13
-1.95727e-12
5.10539e-13
-3.41845e-12
5.3317e-13
-4.19578e-12
6.87888e-14
-3.76433e-12
-1.18249e-12
-1.67503e-12
-3.5225e-12
1.80449e-12
-7.20401e-12
6.23746e-12
-1.24121e-11
1.12475e-11
-1.92665e-11
1.65659e-11
-2.78317e-11
2.20029e-11
-3.81324e-11
2.74267e-11
-5.01541e-11
3.27447e-11
-6.38588e-11
3.78938e-11
-7.91896e-11
4.28269e-11
-9.6074e-11
4.75117e-11
-1.14431e-10
5.19258e-11
-1.34174e-10
5.60513e-11
-1.55206e-10
5.98791e-11
-1.7743e-10
6.34069e-11
-2.0075e-10
6.66339e-11
-2.25068e-10
6.95631e-11
-2.50291e-10
7.21999e-11
-2.76325e-10
7.45489e-11
-3.03074e-10
7.66177e-11
-3.30445e-10
7.84176e-11
-3.58347e-10
7.99595e-11
-3.86697e-10
8.12547e-11
-4.15414e-10
8.23146e-11
-4.44423e-10
8.315e-11
-4.73652e-10
8.3773e-11
-5.03031e-10
8.41954e-11
-5.32493e-10
8.44283e-11
-5.61973e-10
8.44828e-11
-5.91414e-10
8.43695e-11
-6.20759e-10
8.40975e-11
-6.49958e-10
8.36762e-11
-6.78962e-10
8.3116e-11
-7.07727e-10
8.24247e-11
-7.36211e-10
8.16104e-11
-7.64374e-10
8.06818e-11
-7.9218e-10
7.96463e-11
-8.19594e-10
7.85105e-11
-8.46584e-10
7.72814e-11
-8.7312e-10
7.59658e-11
-8.99175e-10
7.45705e-11
-9.24724e-10
7.31011e-11
-9.49742e-10
7.15629e-11
-9.74207e-10
6.99615e-11
-9.98098e-10
6.83017e-11
-1.02139e-09
6.65875e-11
-1.04407e-09
6.48236e-11
-1.06612e-09
6.30142e-11
-1.08753e-09
6.11615e-11
-1.10827e-09
5.92672e-11
-1.12834e-09
5.73339e-11
-1.14771e-09
5.53639e-11
-1.16638e-09
5.33593e-11
-1.18434e-09
5.1322e-11
-1.20157e-09
4.9254e-11
-1.21807e-09
4.71565e-11
-1.23382e-09
4.50303e-11
-1.24881e-09
4.28768e-11
-1.26305e-09
4.06976e-11
-1.27651e-09
3.84946e-11
-1.28919e-09
3.6269e-11
-1.30108e-09
3.40222e-11
-1.31218e-09
3.17555e-11
-1.32248e-09
2.94705e-11
-1.33198e-09
2.71689e-11
-1.34067e-09
2.48525e-11
-1.34854e-09
2.25228e-11
-1.3556e-09
2.01815e-11
-1.36183e-09
1.78295e-11
-1.36723e-09
1.54686e-11
-1.3718e-09
1.30997e-11
-1.37554e-09
1.07233e-11
-1.37844e-09
8.33981e-12
-1.38051e-09
5.95077e-12
-1.38174e-09
3.55788e-12
-1.38214e-09
1.16275e-12
-1.3817e-09
-1.23317e-12
-1.38041e-09
-3.62904e-12
-1.3783e-09
-6.02417e-12
-1.37534e-09
-8.4171e-12
-1.37155e-09
-1.08057e-11
-1.36693e-09
-1.31879e-11
-1.36148e-09
-1.55621e-11
-1.35521e-09
-1.79268e-11
-1.34811e-09
-2.02812e-11
-1.34019e-09
-2.26238e-11
-1.33146e-09
-2.4953e-11
-1.32191e-09
-2.72674e-11
-1.31156e-09
-2.95658e-11
-1.30041e-09
-3.18473e-11
-1.28847e-09
-3.41111e-11
-1.27575e-09
-3.63566e-11
-1.26224e-09
-3.85823e-11
-1.24796e-09
-4.07861e-11
-1.23292e-09
-4.29657e-11
-1.21713e-09
-4.51191e-11
-1.20059e-09
-4.72453e-11
-1.18332e-09
-4.9344e-11
-1.16533e-09
-5.14141e-11
-1.14662e-09
-5.34528e-11
-1.12722e-09
-5.54569e-11
-1.10712e-09
-5.74236e-11
-1.08635e-09
-5.93509e-11
-1.06493e-09
-6.12377e-11
-1.04286e-09
-6.30816e-11
-1.02016e-09
-6.48792e-11
-9.96851e-10
-6.66271e-11
-9.7295e-10
-6.83221e-11
-9.48478e-10
-6.99611e-11
-9.23456e-10
-7.15403e-11
-8.97906e-10
-7.30555e-11
-8.71853e-10
-7.45022e-11
-8.45321e-10
-7.5876e-11
-8.1834e-10
-7.71713e-11
-7.90941e-10
-7.83816e-11
-7.63154e-10
-7.95005e-11
-7.35016e-10
-8.05217e-11
-7.06561e-10
-8.14381e-11
-6.77828e-10
-8.22418e-11
-6.4886e-10
-8.29239e-11
-6.19703e-10
-8.34757e-11
-5.90407e-10
-8.38881e-11
-5.61022e-10
-8.41517e-11
-5.31603e-10
-8.42568e-11
-5.02207e-10
-8.41923e-11
-4.72895e-10
-8.39471e-11
-4.43735e-10
-8.351e-11
-4.14796e-10
-8.28705e-11
-3.8615e-10
-8.20178e-11
-3.57875e-10
-8.09411e-11
-3.3005e-10
-7.96288e-11
-3.02759e-10
-7.80698e-11
-2.76087e-10
-7.62538e-11
-2.50124e-10
-7.41721e-11
-2.24963e-10
-7.18166e-11
-2.00699e-10
-6.91807e-11
-1.77424e-10
-6.62587e-11
-1.55234e-10
-6.30466e-11
-1.34225e-10
-5.95439e-11
-1.14488e-10
-5.57537e-11
-9.61127e-11
-5.16834e-11
-7.91819e-11
-4.73463e-11
-6.37712e-11
-4.27621e-11
-4.99478e-11
-3.79578e-11
-3.77667e-11
-3.29705e-11
-2.72664e-11
-2.78504e-11
-1.84637e-11
-2.26625e-11
-1.13486e-11
-1.74904e-11
-5.8799e-12
-1.24391e-11
-1.97813e-12
-7.64105e-12
4.81376e-13
-3.26534e-12
1.67774e-12
4.74338e-13
1.85475e-12
3.31284e-12
1.33266e-12
4.92294e-12
5.28326e-13
4.88741e-12
2.62322e-12
8.29157e-14
-2.0404e-12
-1.02911e-13
-3.23304e-12
-8.72737e-13
-3.4259e-12
-2.48043e-12
-2.15748e-12
-5.17108e-12
1.01592e-12
-9.19259e-12
5.8268e-12
-1.47675e-11
1.18126e-11
-2.20728e-11
1.85527e-11
-3.12287e-11
2.5722e-11
-4.23092e-11
3.30835e-11
-5.53431e-11
4.04608e-11
-7.03231e-11
4.7725e-11
-8.72141e-11
5.47851e-11
-1.05958e-10
6.15707e-11
-1.26478e-10
6.8032e-11
-1.48689e-10
7.4136e-11
-1.72494e-10
7.98568e-11
-1.97791e-10
8.51761e-11
-2.24472e-10
9.00876e-11
-2.52425e-10
9.45866e-11
-2.81536e-10
9.86752e-11
-3.11697e-10
1.02361e-10
-3.42799e-10
1.05651e-10
-3.74736e-10
1.08555e-10
-4.07403e-10
1.11085e-10
-4.40699e-10
1.13255e-10
-4.74523e-10
1.15078e-10
-5.0878e-10
1.16571e-10
-5.43381e-10
1.1775e-10
-5.78239e-10
1.18631e-10
-6.13272e-10
1.19229e-10
-6.48404e-10
1.1956e-10
-6.83561e-10
1.19639e-10
-7.18673e-10
1.19481e-10
-7.53675e-10
1.19099e-10
-7.88504e-10
1.18506e-10
-8.23105e-10
1.17717e-10
-8.57423e-10
1.16743e-10
-8.91409e-10
1.15596e-10
-9.25015e-10
1.14288e-10
-9.58198e-10
1.12828e-10
-9.90917e-10
1.11229e-10
-1.02313e-09
1.09498e-10
-1.05481e-09
1.07645e-10
-1.08592e-09
1.05678e-10
-1.11643e-09
1.03607e-10
-1.1463e-09
1.01437e-10
-1.17552e-09
9.91775e-11
-1.20405e-09
9.68348e-11
-1.23187e-09
9.44131e-11
-1.25897e-09
9.19181e-11
-1.28531e-09
8.93563e-11
-1.31088e-09
8.6732e-11
-1.33566e-09
8.40483e-11
-1.35964e-09
8.13085e-11
-1.38279e-09
7.85155e-11
-1.4051e-09
7.56724e-11
-1.42656e-09
7.27825e-11
-1.44716e-09
6.9848e-11
-1.46687e-09
6.68709e-11
-1.4857e-09
6.38535e-11
-1.50362e-09
6.07982e-11
-1.52062e-09
5.77071e-11
-1.53671e-09
5.4582e-11
-1.55187e-09
5.1425e-11
-1.56608e-09
4.82381e-11
-1.57935e-09
4.50233e-11
-1.59166e-09
4.17829e-11
-1.60302e-09
3.85195e-11
-1.6134e-09
3.52351e-11
-1.62281e-09
3.19315e-11
-1.63124e-09
2.86107e-11
-1.63868e-09
2.52745e-11
-1.64514e-09
2.19248e-11
-1.6506e-09
1.85634e-11
-1.65507e-09
1.51916e-11
-1.65854e-09
1.18105e-11
-1.66101e-09
8.42185e-12
-1.66248e-09
5.02794e-12
-1.66295e-09
1.63101e-12
-1.66241e-09
-1.76671e-12
-1.66088e-09
-5.16351e-12
-1.65835e-09
-8.55839e-12
-1.65481e-09
-1.195e-11
-1.65028e-09
-1.53357e-11
-1.64476e-09
-1.87127e-11
-1.63824e-09
-2.20783e-11
-1.63074e-09
-2.54308e-11
-1.62225e-09
-2.87687e-11
-1.61278e-09
-3.20906e-11
-1.60234e-09
-3.53944e-11
-1.59093e-09
-3.86782e-11
-1.57856e-09
-4.19399e-11
-1.56523e-09
-4.51773e-11
-1.55095e-09
-4.83885e-11
-1.53573e-09
-5.15723e-11
-1.51959e-09
-5.47274e-11
-1.50252e-09
-5.78519e-11
-1.48455e-09
-6.09434e-11
-1.46567e-09
-6.39986e-11
-1.4459e-09
-6.70147e-11
-1.42525e-09
-6.99896e-11
-1.40375e-09
-7.2922e-11
-1.38139e-09
-7.58096e-11
-1.35819e-09
-7.86494e-11
-1.33418e-09
-8.14373e-11
-1.30936e-09
-8.41695e-11
-1.28376e-09
-8.68427e-11
-1.25738e-09
-8.94542e-11
-1.23026e-09
-9.19999e-11
-1.20241e-09
-9.44754e-11
-1.17386e-09
-9.68756e-11
-1.14463e-09
-9.91955e-11
-1.11474e-09
-1.0143e-10
-1.08422e-09
-1.03573e-10
-1.0531e-09
-1.05618e-10
-1.02142e-09
-1.07559e-10
-9.89202e-10
-1.09388e-10
-9.56487e-10
-1.11097e-10
-9.23312e-10
-1.12676e-10
-8.89719e-10
-1.14115e-10
-8.55752e-10
-1.15405e-10
-8.21458e-10
-1.16535e-10
-7.86885e-10
-1.17495e-10
-7.52089e-10
-1.18271e-10
-7.17127e-10
-1.1885e-10
-6.82061e-10
-1.19218e-10
-6.46956e-10
-1.19363e-10
-6.11878e-10
-1.19269e-10
-5.76902e-10
-1.18923e-10
-5.42104e-10
-1.18308e-10
-5.07565e-10
-1.1741e-10
-4.73371e-10
-1.16212e-10
-4.39612e-10
-1.147e-10
-4.06381e-10
-1.12859e-10
-3.73775e-10
-1.10676e-10
-3.41894e-10
-1.08135e-10
-3.10841e-10
-1.05225e-10
-2.80723e-10
-1.01935e-10
-2.51647e-10
-9.8256e-11
-2.23722e-10
-9.4183e-11
-1.97057e-10
-8.9712e-11
-1.71757e-10
-8.48434e-11
-1.47928e-10
-7.95827e-11
-1.25671e-10
-7.39415e-11
-1.05078e-10
-6.79392e-11
-8.62348e-11
-6.16048e-11
-6.92147e-11
-5.49775e-11
-5.40769e-11
-4.81085e-11
-4.08631e-11
-4.10652e-11
-2.95925e-11
-3.39343e-11
-2.02562e-11
-2.6827e-11
-1.28115e-11
-1.98831e-11
-7.17703e-12
-1.32751e-11
-3.22585e-12
-7.21672e-12
-7.78592e-13
-1.9732e-12
4.05957e-13
2.12844e-12
6.41802e-13
4.68755e-12
3.32277e-13
5.19713e-12
2.95558e-12
-9.91721e-14
-1.94146e-12
-7.87241e-13
-2.5445e-12
-2.4146e-12
-1.79804e-12
-5.24279e-12
6.70164e-13
-9.47855e-12
5.25138e-12
-1.53185e-11
1.1667e-11
-2.29451e-11
1.94398e-11
-3.25116e-11
2.81194e-11
-4.41292e-11
3.73399e-11
-5.78653e-11
4.68199e-11
-7.37494e-11
5.63448e-11
-9.17759e-11
6.57514e-11
-1.11909e-10
7.49177e-11
-1.34089e-10
8.37511e-11
-1.58238e-10
9.21813e-11
-1.84263e-10
1.00161e-10
-2.1206e-10
1.07654e-10
-2.41519e-10
1.14635e-10
-2.72525e-10
1.21093e-10
-3.04958e-10
1.27019e-10
-3.38695e-10
1.32412e-10
-3.73612e-10
1.37278e-10
-4.09587e-10
1.41626e-10
-4.46501e-10
1.45469e-10
-4.84238e-10
1.48821e-10
-5.22683e-10
1.51701e-10
-5.61728e-10
1.54123e-10
-6.01266e-10
1.56109e-10
-6.41194e-10
1.57678e-10
-6.81415e-10
1.58852e-10
-7.21836e-10
1.5965e-10
-7.62367e-10
1.60092e-10
-8.02926e-10
1.60198e-10
-8.43434e-10
1.59989e-10
-8.83817e-10
1.59481e-10
-9.24004e-10
1.58693e-10
-9.63929e-10
1.57642e-10
-1.00353e-09
1.56345e-10
-1.04275e-09
1.54818e-10
-1.08154e-09
1.53074e-10
-1.11984e-09
1.51129e-10
-1.15761e-09
1.48997e-10
-1.1948e-09
1.46689e-10
-1.23138e-09
1.44219e-10
-1.26729e-09
1.41597e-10
-1.30252e-09
1.38833e-10
-1.33702e-09
1.35937e-10
-1.37076e-09
1.32919e-10
-1.40372e-09
1.29789e-10
-1.43586e-09
1.26552e-10
-1.46715e-09
1.23216e-10
-1.49758e-09
1.19788e-10
-1.52713e-09
1.16274e-10
-1.55576e-09
1.1268e-10
-1.58346e-09
1.09009e-10
-1.61021e-09
1.05266e-10
-1.63599e-09
1.01455e-10
-1.66079e-09
9.75813e-11
-1.68459e-09
9.36466e-11
-1.70737e-09
8.96543e-11
-1.72913e-09
8.56078e-11
-1.74984e-09
8.15104e-11
-1.7695e-09
7.73651e-11
-1.78809e-09
7.31745e-11
-1.80561e-09
6.89414e-11
-1.82204e-09
6.46684e-11
-1.83737e-09
6.03583e-11
-1.8516e-09
5.60141e-11
-1.86472e-09
5.16388e-11
-1.87672e-09
4.7235e-11
-1.8876e-09
4.2805e-11
-1.89734e-09
3.83517e-11
-1.90594e-09
3.38779e-11
-1.9134e-09
2.93855e-11
-1.91971e-09
2.48771e-11
-1.92488e-09
2.03548e-11
-1.92889e-09
1.58207e-11
-1.93174e-09
1.1277e-11
-1.93344e-09
6.72655e-12
-1.93398e-09
2.17189e-12
-1.93336e-09
-2.38419e-12
-1.93159e-09
-6.93895e-12
-1.92866e-09
-1.14902e-11
-1.92457e-09
-1.60358e-11
-1.91933e-09
-2.05734e-11
-1.91295e-09
-2.50996e-11
-1.90541e-09
-2.96117e-11
-1.89674e-09
-3.4107e-11
-1.88692e-09
-3.85827e-11
-1.87598e-09
-4.30365e-11
-1.8639e-09
-4.74659e-11
-1.85071e-09
-5.18685e-11
-1.83641e-09
-5.62422e-11
-1.821e-09
-6.05842e-11
-1.8045e-09
-6.48917e-11
-1.78691e-09
-6.91618e-11
-1.76825e-09
-7.3392e-11
-1.74852e-09
-7.75796e-11
-1.72774e-09
-8.17223e-11
-1.70592e-09
-8.58174e-11
-1.68308e-09
-8.98615e-11
-1.65921e-09
-9.38505e-11
-1.63436e-09
-9.77808e-11
-1.60852e-09
-1.01649e-10
-1.58171e-09
-1.05453e-10
-1.55396e-09
-1.09187e-10
-1.52528e-09
-1.12848e-10
-1.4957e-09
-1.16429e-10
-1.46523e-09
-1.19926e-10
-1.43389e-09
-1.23335e-10
-1.40172e-09
-1.26648e-10
-1.36873e-09
-1.29861e-10
-1.33496e-09
-1.32965e-10
-1.30044e-09
-1.35954e-10
-1.26519e-09
-1.3882e-10
-1.22925e-09
-1.41554e-10
-1.19267e-09
-1.44147e-10
-1.15546e-09
-1.4659e-10
-1.11769e-09
-1.48871e-10
-1.07939e-09
-1.50978e-10
-1.04061e-09
-1.52898e-10
-1.00139e-09
-1.54617e-10
-9.61806e-10
-1.56122e-10
-9.21902e-10
-1.57399e-10
-8.81741e-10
-1.58431e-10
-8.41389e-10
-1.59201e-10
-8.00917e-10
-1.59691e-10
-7.60399e-10
-1.59882e-10
-7.19913e-10
-1.59756e-10
-6.79541e-10
-1.59294e-10
-6.39372e-10
-1.58477e-10
-5.99497e-10
-1.57284e-10
-5.60013e-10
-1.55696e-10
-5.2102e-10
-1.53692e-10
-4.82625e-10
-1.51255e-10
-4.44936e-10
-1.48365e-10
-4.08066e-10
-1.45005e-10
-3.7213e-10
-1.41161e-10
-3.37245e-10
-1.36819e-10
-3.03533e-10
-1.31968e-10
-2.71113e-10
-1.26602e-10
-2.40106e-10
-1.20719e-10
-2.1063e-10
-1.1432e-10
-1.82798e-10
-1.07415e-10
-1.5672e-10
-1.0002e-10
-1.32499e-10
-9.21606e-11
-1.10228e-10
-8.38761e-11
-8.99869e-11
-7.52183e-11
-7.18401e-11
-6.62551e-11
-5.58323e-11
-5.7073e-11
-4.19855e-11
-4.77816e-11
-3.0294e-11
-3.85192e-11
-2.07187e-11
-2.94584e-11
-1.31818e-11
-2.08115e-11
-7.5614e-12
-1.28367e-11
-3.68616e-12
-5.84852e-12
-1.3274e-12
-2.30335e-13
-1.90266e-13
3.55087e-12
9.74123e-14
4.90985e-12
3.05306e-12
-3.0507e-13
-1.63696e-12
-1.55375e-12
-1.29578e-12
-4.10257e-12
7.5206e-13
-8.20986e-12
4.77722e-12
-1.40532e-11
1.10945e-11
-2.17875e-11
1.94012e-11
-3.15569e-11
2.92095e-11
-4.34836e-11
4.00463e-11
-5.76599e-11
5.15163e-11
-7.41416e-11
6.3302e-11
-9.29506e-11
7.5154e-11
-1.14076e-10
8.68772e-11
-1.3748e-10
9.83213e-11
-1.63101e-10
1.09371e-10
-1.90857e-10
1.19937e-10
-2.20651e-10
1.29954e-10
-2.52372e-10
1.39375e-10
-2.85904e-10
1.48167e-10
-3.2112e-10
1.56309e-10
-3.57893e-10
1.63793e-10
-3.96094e-10
1.70613e-10
-4.3559e-10
1.76773e-10
-4.76249e-10
1.82284e-10
-5.1794e-10
1.8716e-10
-5.60535e-10
1.91417e-10
-6.0391e-10
1.95075e-10
-6.47944e-10
1.98157e-10
-6.92521e-10
2.00686e-10
-7.37529e-10
2.02686e-10
-7.8286e-10
2.04182e-10
-8.28411e-10
2.05201e-10
-8.74085e-10
2.05766e-10
-9.19788e-10
2.05902e-10
-9.65432e-10
2.05633e-10
-1.01094e-09
2.04984e-10
-1.05622e-09
2.03976e-10
-1.10121e-09
2.02632e-10
-1.14584e-09
2.00974e-10
-1.19004e-09
1.99019e-10
-1.23376e-09
1.96789e-10
-1.27693e-09
1.943e-10
-1.3195e-09
1.9157e-10
-1.36143e-09
1.88616e-10
-1.40266e-09
1.85451e-10
-1.44315e-09
1.82092e-10
-1.48287e-09
1.7855e-10
-1.52177e-09