/*--------------------------------*- C++ -*----------------------------------*\
  =========                 |
  \\      /  F ield         | OpenFOAM: The Open Source CFD Toolbox
   \\    /   O peration     | Website:  https://openfoam.org
    \\  /    A nd           | Version:  7
     \\/     M anipulation  |
\*---------------------------------------------------------------------------*/
FoamFile
{
    version     2.0;
    format      ascii;
    class       volScalarField;
    location    "0.2875";
    object      p;
}
// * * * * * * * * * * * * * * * * * * * * * * * * * * * * * * * * * * * * * //

dimensions      [0 2 -2 0 0 0 0];

internalField   nonuniform List<scalar> 
51200
(
-7.72063e-09
-1.02583e-06
-2.36513e-06
-3.5587e-06
-4.49482e-06
-5.31692e-06
-6.08449e-06
-6.8372e-06
-7.60014e-06
-8.38917e-06
-9.21795e-06
-1.00979e-05
-1.10354e-05
-1.20306e-05
-1.30792e-05
-1.41754e-05
-1.53151e-05
-1.64997e-05
-1.77289e-05
-1.89981e-05
-2.03015e-05
-2.16347e-05
-2.29962e-05
-2.43841e-05
-2.57961e-05
-2.72286e-05
-2.86753e-05
-3.01317e-05
-3.15975e-05
-3.30733e-05
-3.45566e-05
-3.60409e-05
-3.75202e-05
-3.89928e-05
-4.04595e-05
-4.19222e-05
-4.33808e-05
-4.48302e-05
-4.62652e-05
-4.76856e-05
-4.90925e-05
-5.04853e-05
-5.18633e-05
-5.32258e-05
-5.45719e-05
-5.59018e-05
-5.72159e-05
-5.8514e-05
-5.97948e-05
-6.10551e-05
-6.22923e-05
-6.35095e-05
-6.47108e-05
-6.58961e-05
-6.70623e-05
-6.82064e-05
-6.93285e-05
-7.04318e-05
-7.1521e-05
-7.25997e-05
-7.36668e-05
-7.47187e-05
-7.57523e-05
-7.67669e-05
-7.77642e-05
-7.87476e-05
-7.97206e-05
-8.06851e-05
-8.16406e-05
-8.2586e-05
-8.35211e-05
-8.44471e-05
-8.5367e-05
-8.62837e-05
-8.71986e-05
-8.81119e-05
-8.90237e-05
-8.99336e-05
-9.08414e-05
-9.17477e-05
-9.26544e-05
-9.3563e-05
-9.44746e-05
-9.539e-05
-9.63101e-05
-9.72363e-05
-9.81695e-05
-9.91104e-05
-0.00010006
-0.00010102
-0.00010199
-0.00010297
-0.000103962
-0.000104968
-0.000105989
-0.000107024
-0.000108072
-0.000109134
-0.000110211
-0.000111305
-0.000112417
-0.000113548
-0.000114698
-0.000115868
-0.000117057
-0.000118264
-0.00011949
-0.000120733
-0.000121993
-0.000123273
-0.000124573
-0.000125892
-0.00012723
-0.000128584
-0.000129953
-0.000131335
-0.000132732
-0.000134144
-0.000135569
-0.000137005
-0.000138448
-0.000139897
-0.000141351
-0.000142809
-0.000144268
-0.000145726
-0.000147182
-0.000148631
-0.000150072
-0.000151505
-0.000152926
-0.000154331
-0.000155714
-0.000157074
-0.000158408
-0.000159714
-0.000160988
-0.000162225
-0.00016342
-0.00016457
-0.000165669
-0.000166717
-0.000167708
-0.000168634
-0.000169493
-0.00017028
-0.000170992
-0.000171624
-0.000172173
-0.000172633
-0.000173002
-0.000173279
-0.000173463
-0.000173552
-0.000173553
-0.000173475
-0.000173334
-0.000173156
-0.00017298
-0.000172867
-1.2746e-06
-2.15461e-06
-3.21711e-06
-4.19267e-06
-5.04176e-06
-5.81883e-06
-6.55845e-06
-7.28952e-06
-8.03503e-06
-8.80853e-06
-9.61837e-06
-1.04715e-05
-1.1373e-05
-1.23263e-05
-1.33321e-05
-1.43869e-05
-1.54862e-05
-1.66278e-05
-1.78105e-05
-1.9033e-05
-2.02906e-05
-2.15786e-05
-2.2894e-05
-2.42338e-05
-2.55973e-05
-2.69832e-05
-2.83874e-05
-2.98036e-05
-3.12274e-05
-3.26589e-05
-3.40981e-05
-3.5543e-05
-3.69896e-05
-3.84331e-05
-3.98708e-05
-4.13034e-05
-4.27317e-05
-4.4154e-05
-4.55668e-05
-4.6968e-05
-4.83573e-05
-4.97354e-05
-5.1102e-05
-5.24559e-05
-5.37961e-05
-5.51213e-05
-5.64307e-05
-5.77248e-05
-5.90046e-05
-6.02687e-05
-6.15139e-05
-6.27397e-05
-6.39486e-05
-6.51427e-05
-6.63223e-05
-6.74855e-05
-6.86304e-05
-6.97567e-05
-7.08665e-05
-7.19629e-05
-7.3048e-05
-7.41223e-05
-7.51841e-05
-7.62311e-05
-7.72626e-05
-7.82792e-05
-7.92827e-05
-8.02762e-05
-8.12619e-05
-8.22406e-05
-8.32125e-05
-8.41777e-05
-8.51373e-05
-8.60927e-05
-8.70451e-05
-8.79949e-05
-8.89433e-05
-8.98907e-05
-9.08368e-05
-9.17819e-05
-9.27275e-05
-9.36748e-05
-9.4625e-05
-9.5579e-05
-9.65373e-05
-9.75007e-05
-9.84703e-05
-9.94463e-05
-0.00010043
-0.000101424
-0.000102427
-0.00010344
-0.000104464
-0.000105501
-0.00010655
-0.000107611
-0.000108686
-0.000109773
-0.000110874
-0.000111991
-0.000113122
-0.000114271
-0.000115437
-0.000116621
-0.000117824
-0.000119044
-0.000120279
-0.00012153
-0.000122796
-0.000124079
-0.000125379
-0.000126695
-0.000128029
-0.000129377
-0.000130739
-0.000132114
-0.0001335
-0.000134897
-0.000136304
-0.00013772
-0.000139141
-0.000140567
-0.000141995
-0.000143426
-0.000144856
-0.000146283
-0.000147704
-0.000149119
-0.000150523
-0.000151917
-0.000153297
-0.00015466
-0.000156001
-0.000157317
-0.000158605
-0.000159864
-0.000161092
-0.000162285
-0.000163436
-0.00016454
-0.000165594
-0.000166595
-0.000167542
-0.000168429
-0.000169252
-0.000170005
-0.000170686
-0.000171291
-0.000171818
-0.000172263
-0.000172625
-0.000172903
-0.000173098
-0.000173211
-0.000173245
-0.000173211
-0.000173124
-0.000173005
-0.000172874
-0.000172764
-2.97294e-06
-3.49026e-06
-4.1732e-06
-4.90327e-06
-5.61473e-06
-6.30759e-06
-6.99093e-06
-7.68036e-06
-8.39221e-06
-9.13836e-06
-9.92482e-06
-1.07537e-05
-1.16267e-05
-1.25469e-05
-1.3516e-05
-1.45348e-05
-1.55999e-05
-1.67063e-05
-1.78521e-05
-1.90354e-05
-2.02538e-05
-2.1504e-05
-2.27827e-05
-2.4086e-05
-2.5411e-05
-2.67576e-05
-2.81246e-05
-2.9507e-05
-3.08989e-05
-3.22973e-05
-3.37017e-05
-3.51129e-05
-3.65298e-05
-3.79486e-05
-3.93647e-05
-4.07753e-05
-4.21803e-05
-4.35807e-05
-4.49745e-05
-4.63589e-05
-4.77334e-05
-4.90988e-05
-5.04549e-05
-5.18012e-05
-5.31367e-05
-5.44592e-05
-5.57664e-05
-5.7058e-05
-5.83358e-05
-5.96016e-05
-6.08533e-05
-6.20883e-05
-6.33058e-05
-6.45075e-05
-6.56959e-05
-6.68713e-05
-6.80331e-05
-6.91801e-05
-7.0311e-05
-7.14266e-05
-7.25295e-05
-7.36217e-05
-7.4704e-05
-7.57749e-05
-7.68335e-05
-7.78792e-05
-7.89117e-05
-7.99326e-05
-8.09448e-05
-8.19507e-05
-8.29517e-05
-8.39486e-05
-8.4941e-05
-8.59292e-05
-8.69138e-05
-8.78959e-05
-8.88766e-05
-8.98566e-05
-9.08357e-05
-9.18139e-05
-9.27923e-05
-9.37721e-05
-9.47545e-05
-9.57409e-05
-9.67321e-05
-9.77283e-05
-9.87301e-05
-9.97375e-05
-0.000100751
-0.000101772
-0.000102803
-0.000103844
-0.000104897
-0.00010596
-0.000107034
-0.00010812
-0.000109217
-0.000110326
-0.000111448
-0.000112583
-0.000113733
-0.000114899
-0.000116079
-0.000117277
-0.00011849
-0.00011972
-0.000120963
-0.000122221
-0.000123493
-0.000124781
-0.000126083
-0.000127398
-0.000128729
-0.000130072
-0.000131429
-0.000132796
-0.000134173
-0.000135559
-0.000136953
-0.000138353
-0.000139757
-0.000141164
-0.000142572
-0.00014398
-0.000145386
-0.000146789
-0.000148184
-0.00014957
-0.000150944
-0.000152306
-0.000153653
-0.000154982
-0.000156289
-0.000157571
-0.000158825
-0.000160047
-0.000161236
-0.000162391
-0.000163506
-0.000164575
-0.000165594
-0.00016656
-0.000167472
-0.000168327
-0.000169121
-0.000169849
-0.000170506
-0.00017109
-0.000171601
-0.000172034
-0.000172389
-0.000172667
-0.000172868
-0.000172995
-0.000173051
-0.000173042
-0.00017298
-0.000172882
-0.000172753
-0.000172603
-4.52241e-06
-4.71222e-06
-5.10709e-06
-5.62409e-06
-6.18924e-06
-6.78218e-06
-7.39574e-06
-8.03249e-06
-8.70095e-06
-9.4098e-06
-1.01642e-05
-1.09656e-05
-1.18137e-05
-1.27072e-05
-1.36469e-05
-1.46339e-05
-1.5667e-05
-1.67432e-05
-1.78583e-05
-1.90091e-05
-2.01937e-05
-2.14097e-05
-2.26556e-05
-2.39285e-05
-2.52233e-05
-2.65377e-05
-2.78715e-05
-2.92228e-05
-3.0587e-05
-3.19596e-05
-3.33387e-05
-3.4723e-05
-3.61124e-05
-3.75071e-05
-3.89033e-05
-4.02958e-05
-4.16832e-05
-4.30658e-05
-4.44429e-05
-4.58132e-05
-4.71758e-05
-4.85303e-05
-4.98766e-05
-5.12145e-05
-5.25437e-05
-5.38629e-05
-5.517e-05
-5.64627e-05
-5.77409e-05
-5.90072e-05
-6.02625e-05
-6.1505e-05
-6.27329e-05
-6.39453e-05
-6.51428e-05
-6.63267e-05
-6.74988e-05
-6.86598e-05
-6.98088e-05
-7.09448e-05
-7.20683e-05
-7.318e-05
-7.42807e-05
-7.53704e-05
-7.64494e-05
-7.75181e-05
-7.85764e-05
-7.96244e-05
-8.06635e-05
-8.16953e-05
-8.27222e-05
-8.3746e-05
-8.47666e-05
-8.57836e-05
-8.67975e-05
-8.78089e-05
-8.88185e-05
-8.98272e-05
-9.08356e-05
-9.1844e-05
-9.28526e-05
-9.38626e-05
-9.48749e-05
-9.58904e-05
-9.69101e-05
-9.79345e-05
-9.89648e-05
-0.000100001
-0.000101043
-0.000102091
-0.000103147
-0.000104214
-0.000105291
-0.000106379
-0.000107476
-0.000108584
-0.000109703
-0.000110832
-0.000111972
-0.000113125
-0.000114291
-0.000115473
-0.000116669
-0.000117879
-0.000119104
-0.000120343
-0.000121593
-0.000122857
-0.000124134
-0.000125426
-0.000126731
-0.000128049
-0.000129378
-0.000130719
-0.00013207
-0.000133432
-0.000134802
-0.000136179
-0.000137561
-0.000138947
-0.000140337
-0.000141729
-0.000143121
-0.000144511
-0.000145898
-0.000147278
-0.000148651
-0.000150013
-0.000151363
-0.000152699
-0.000154018
-0.000155318
-0.000156597
-0.00015785
-0.000159075
-0.000160269
-0.000161428
-0.000162549
-0.000163631
-0.00016467
-0.00016566
-0.000166599
-0.000167485
-0.000168314
-0.000169084
-0.000169791
-0.000170429
-0.000170996
-0.000171493
-0.000171917
-0.000172267
-0.000172543
-0.000172747
-0.00017288
-0.000172946
-0.000172949
-0.000172894
-0.000172796
-0.000172647
-0.000172441
-5.73207e-06
-5.73459e-06
-5.94315e-06
-6.29992e-06
-6.73673e-06
-7.23115e-06
-7.77233e-06
-8.35514e-06
-8.98037e-06
-9.65092e-06
-1.037e-05
-1.114e-05
-1.19595e-05
-1.28271e-05
-1.37407e-05
-1.46989e-05
-1.5702e-05
-1.67481e-05
-1.78337e-05
-1.89556e-05
-2.01103e-05
-2.12952e-05
-2.25095e-05
-2.37524e-05
-2.50197e-05
-2.63064e-05
-2.76108e-05
-2.89321e-05
-3.02678e-05
-3.16154e-05
-3.29723e-05
-3.43347e-05
-3.57012e-05
-3.70725e-05
-3.84473e-05
-3.98219e-05
-4.11935e-05
-4.25603e-05
-4.3922e-05
-4.52789e-05
-4.66305e-05
-4.79761e-05
-4.9315e-05
-5.06462e-05
-5.19687e-05
-5.32825e-05
-5.45875e-05
-5.58816e-05
-5.71628e-05
-5.84317e-05
-5.96894e-05
-6.09365e-05
-6.21726e-05
-6.33961e-05
-6.46058e-05
-6.58019e-05
-6.69853e-05
-6.81578e-05
-6.93206e-05
-7.04739e-05
-7.16171e-05
-7.27494e-05
-7.38706e-05
-7.49808e-05
-7.608e-05
-7.71695e-05
-7.82504e-05
-7.93232e-05
-8.03887e-05
-8.14477e-05
-8.25014e-05
-8.35515e-05
-8.45986e-05
-8.5643e-05
-8.66852e-05
-8.77256e-05
-8.87638e-05
-8.98007e-05
-9.08373e-05
-9.18742e-05
-9.29119e-05
-9.39514e-05
-9.49935e-05
-9.60387e-05
-9.70872e-05
-9.81397e-05
-9.9197e-05
-0.00010026
-0.00010133
-0.000102405
-0.000103487
-0.000104579
-0.000105681
-0.000106793
-0.000107914
-0.000109043
-0.000110183
-0.000111332
-0.000112492
-0.000113662
-0.000114845
-0.000116042
-0.000117253
-0.000118477
-0.000119714
-0.000120962
-0.000122222
-0.000123492
-0.000124775
-0.000126071
-0.000127379
-0.000128699
-0.000130029
-0.000131368
-0.000132716
-0.000134072
-0.000135435
-0.000136805
-0.000138177
-0.000139552
-0.000140928
-0.000142306
-0.000143684
-0.000145059
-0.000146428
-0.000147788
-0.00014914
-0.00015048
-0.000151808
-0.000153121
-0.000154416
-0.00015569
-0.000156942
-0.000158167
-0.000159365
-0.000160533
-0.000161665
-0.000162759
-0.000163811
-0.00016482
-0.000165784
-0.000166699
-0.000167562
-0.000168369
-0.000169118
-0.000169805
-0.000170426
-0.000170978
-0.000171461
-0.000171876
-0.000172222
-0.000172497
-0.000172702
-0.000172838
-0.000172908
-0.000172914
-0.000172861
-0.000172755
-0.00017258
-0.00017232
-6.69182e-06
-6.57071e-06
-6.65258e-06
-6.89185e-06
-7.22479e-06
-7.63134e-06
-8.10267e-06
-8.63178e-06
-9.2148e-06
-9.85006e-06
-1.05373e-05
-1.1276e-05
-1.20661e-05
-1.29064e-05
-1.37943e-05
-1.47275e-05
-1.57037e-05
-1.67214e-05
-1.77788e-05
-1.88729e-05
-2.0001e-05
-2.11592e-05
-2.23452e-05
-2.35594e-05
-2.47998e-05
-2.60615e-05
-2.73411e-05
-2.86366e-05
-2.9946e-05
-3.12682e-05
-3.26022e-05
-3.39452e-05
-3.52936e-05
-3.66454e-05
-3.80002e-05
-3.93569e-05
-4.07127e-05
-4.20653e-05
-4.34138e-05
-4.47585e-05
-4.60991e-05
-4.74359e-05
-4.87684e-05
-5.00948e-05
-5.14133e-05
-5.2723e-05
-5.40244e-05
-5.53179e-05
-5.6602e-05
-5.78756e-05
-5.91382e-05
-6.039e-05
-6.16317e-05
-6.28628e-05
-6.4083e-05
-6.52923e-05
-6.64899e-05
-6.76762e-05
-6.88528e-05
-7.00211e-05
-7.1181e-05
-7.23315e-05
-7.34723e-05
-7.46032e-05
-7.57239e-05
-7.68352e-05
-7.79381e-05
-7.90336e-05
-8.01231e-05
-8.12079e-05
-8.22884e-05
-8.3365e-05
-8.44383e-05
-8.55089e-05
-8.65779e-05
-8.76456e-05
-8.87118e-05
-8.97765e-05
-9.08409e-05
-9.19058e-05
-9.29715e-05
-9.40389e-05
-9.51091e-05
-9.61828e-05
-9.72602e-05
-9.83415e-05
-9.94262e-05
-0.000100516
-0.000101611
-0.000102712
-0.000103821
-0.000104938
-0.000106064
-0.000107199
-0.000108342
-0.000109494
-0.000110654
-0.000111823
-0.000113002
-0.000114191
-0.00011539
-0.000116603
-0.000117829
-0.000119066
-0.000120315
-0.000121573
-0.000122842
-0.000124122
-0.000125412
-0.000126713
-0.000128024
-0.000129346
-0.000130677
-0.000132016
-0.000133361
-0.000134714
-0.000136071
-0.000137434
-0.000138798
-0.000140163
-0.000141529
-0.000142895
-0.000144259
-0.000145619
-0.000146973
-0.000148316
-0.000149649
-0.000150969
-0.000152276
-0.000153568
-0.000154841
-0.000156094
-0.000157322
-0.000158524
-0.000159696
-0.000160838
-0.000161945
-0.000163015
-0.000164042
-0.000165027
-0.000165966
-0.000166858
-0.000167701
-0.000168489
-0.000169219
-0.000169889
-0.000170494
-0.000171034
-0.000171507
-0.000171914
-0.000172255
-0.000172529
-0.000172734
-0.000172871
-0.00017294
-0.000172946
-0.00017289
-0.000172774
-0.000172574
-0.000172268
-7.43313e-06
-7.22862e-06
-7.22178e-06
-7.37501e-06
-7.62898e-06
-7.96527e-06
-8.37644e-06
-8.85501e-06
-9.39655e-06
-9.99804e-06
-1.06558e-05
-1.13672e-05
-1.21304e-05
-1.29438e-05
-1.38064e-05
-1.47156e-05
-1.56682e-05
-1.66616e-05
-1.76933e-05
-1.87613e-05
-1.98644e-05
-2.09988e-05
-2.21609e-05
-2.33496e-05
-2.45644e-05
-2.58023e-05
-2.70593e-05
-2.83331e-05
-2.96212e-05
-3.09209e-05
-3.22324e-05
-3.35557e-05
-3.48872e-05
-3.62231e-05
-3.7562e-05
-3.89024e-05
-4.02429e-05
-4.15824e-05
-4.29196e-05
-4.42541e-05
-4.55856e-05
-4.69141e-05
-4.82394e-05
-4.95609e-05
-5.08767e-05
-5.21847e-05
-5.34843e-05
-5.47766e-05
-5.60617e-05
-5.73389e-05
-5.86075e-05
-5.98663e-05
-6.11147e-05
-6.23528e-05
-6.35812e-05
-6.48009e-05
-6.60114e-05
-6.72124e-05
-6.84045e-05
-6.95885e-05
-7.07644e-05
-7.19318e-05
-7.30903e-05
-7.424e-05
-7.53811e-05
-7.6514e-05
-7.76392e-05
-7.87573e-05
-7.98699e-05
-8.09786e-05
-8.20841e-05
-8.31863e-05
-8.42855e-05
-8.53823e-05
-8.6477e-05
-8.75705e-05
-8.86629e-05
-8.97542e-05
-9.08454e-05
-9.19374e-05
-9.30306e-05
-9.41255e-05
-9.52227e-05
-9.63232e-05
-9.74279e-05
-9.8537e-05
-9.96492e-05
-0.000100765
-0.000101885
-0.000103012
-0.000104146
-0.000105287
-0.000106437
-0.000107595
-0.00010876
-0.000109933
-0.000111112
-0.000112301
-0.000113498
-0.000114706
-0.000115923
-0.000117152
-0.000118393
-0.000119644
-0.000120905
-0.000122174
-0.000123452
-0.00012474
-0.000126038
-0.000127346
-0.000128662
-0.000129986
-0.000131319
-0.000132658
-0.000134003
-0.000135353
-0.000136706
-0.000138062
-0.00013942
-0.000140778
-0.000142135
-0.000143491
-0.000144843
-0.00014619
-0.000147529
-0.000148858
-0.000150175
-0.000151479
-0.000152768
-0.000154041
-0.000155294
-0.000156526
-0.000157734
-0.000158915
-0.000160066
-0.000161184
-0.000162268
-0.000163315
-0.000164322
-0.000165286
-0.000166205
-0.000167078
-0.000167902
-0.000168673
-0.000169387
-0.000170042
-0.000170635
-0.000171165
-0.000171631
-0.000172032
-0.000172369
-0.00017264
-0.000172845
-0.00017298
-0.000173048
-0.00017305
-0.000172988
-0.000172862
-0.000172642
-0.000172301
-7.98081e-06
-7.72193e-06
-7.65379e-06
-7.74314e-06
-7.93702e-06
-8.21948e-06
-8.58266e-06
-9.019e-06
-9.5236e-06
-1.00924e-05
-1.07221e-05
-1.14087e-05
-1.21482e-05
-1.29382e-05
-1.37769e-05
-1.46628e-05
-1.55934e-05
-1.65651e-05
-1.75747e-05
-1.862e-05
-1.96999e-05
-2.08125e-05
-2.19537e-05
-2.31208e-05
-2.43132e-05
-2.55286e-05
-2.6764e-05
-2.80178e-05
-2.92876e-05
-3.05695e-05
-3.18626e-05
-3.31671e-05
-3.44814e-05
-3.58026e-05
-3.7128e-05
-3.84549e-05
-3.97821e-05
-4.11094e-05
-4.24361e-05
-4.3762e-05
-4.50868e-05
-4.64091e-05
-4.77284e-05
-4.90446e-05
-5.03569e-05
-5.16638e-05
-5.29637e-05
-5.42567e-05
-5.55428e-05
-5.68221e-05
-5.80949e-05
-5.93601e-05
-6.06164e-05
-6.18633e-05
-6.31008e-05
-6.43299e-05
-6.55513e-05
-6.67655e-05
-6.79725e-05
-6.9172e-05
-7.03642e-05
-7.15486e-05
-7.27246e-05
-7.38924e-05
-7.50523e-05
-7.62051e-05
-7.73515e-05
-7.84922e-05
-7.9628e-05
-8.076e-05
-8.1889e-05
-8.30153e-05
-8.41395e-05
-8.52617e-05
-8.63818e-05
-8.75004e-05
-8.86181e-05
-8.97349e-05
-9.08514e-05
-9.1969e-05
-9.30886e-05
-9.42103e-05
-9.53344e-05
-9.64615e-05
-9.75923e-05
-9.87273e-05
-9.98656e-05
-0.000101007
-0.000102152
-0.000103303
-0.000104462
-0.000105627
-0.000106799
-0.000107979
-0.000109166
-0.000110359
-0.00011156
-0.000112767
-0.000113982
-0.000115208
-0.000116443
-0.000117688
-0.000118944
-0.00012021
-0.000121483
-0.000122764
-0.000124052
-0.000125349
-0.000126655
-0.00012797
-0.000129292
-0.00013062
-0.000131954
-0.000133294
-0.000134639
-0.000135989
-0.00013734
-0.000138692
-0.000140044
-0.000141395
-0.000142746
-0.000144094
-0.000145436
-0.000146771
-0.000148098
-0.000149414
-0.000150718
-0.000152008
-0.000153282
-0.000154539
-0.000155775
-0.000156988
-0.000158177
-0.000159339
-0.000160471
-0.000161571
-0.000162635
-0.000163663
-0.000164651
-0.000165597
-0.000166499
-0.000167355
-0.000168163
-0.00016892
-0.000169621
-0.000170264
-0.000170847
-0.000171369
-0.00017183
-0.000172228
-0.000172561
-0.000172829
-0.000173032
-0.000173167
-0.000173233
-0.000173231
-0.000173163
-0.000173028
-0.000172793
-0.000172427
-8.35193e-06
-8.06297e-06
-7.95517e-06
-7.99896e-06
-8.14761e-06
-8.38786e-06
-8.71318e-06
-9.11648e-06
-9.59058e-06
-1.01313e-05
-1.07348e-05
-1.13976e-05
-1.21158e-05
-1.28855e-05
-1.37037e-05
-1.45689e-05
-1.54788e-05
-1.64305e-05
-1.74208e-05
-1.84464e-05
-1.95058e-05
-2.05984e-05
-2.17208e-05
-2.28696e-05
-2.4043e-05
-2.52392e-05
-2.64553e-05
-2.76898e-05
-2.8942e-05
-3.02089e-05
-3.14877e-05
-3.2777e-05
-3.40759e-05
-3.53829e-05
-3.66953e-05
-3.80107e-05
-3.93273e-05
-4.06444e-05
-4.19619e-05
-4.32801e-05
-4.45988e-05
-4.59166e-05
-4.72322e-05
-4.85445e-05
-4.98532e-05
-5.11583e-05
-5.24587e-05
-5.37536e-05
-5.50426e-05
-5.63252e-05
-5.76015e-05
-5.88713e-05
-6.01341e-05
-6.13898e-05
-6.26373e-05
-6.38768e-05
-6.51095e-05
-6.63362e-05
-6.75569e-05
-6.87711e-05
-6.99786e-05
-7.11793e-05
-7.23726e-05
-7.35585e-05
-7.47372e-05
-7.5909e-05
-7.70752e-05
-7.82374e-05
-7.93959e-05
-8.0551e-05
-8.17031e-05
-8.28527e-05
-8.40006e-05
-8.5147e-05
-8.62916e-05
-8.74345e-05
-8.85767e-05
-8.97183e-05
-9.08598e-05
-9.20021e-05
-9.31466e-05
-9.42937e-05
-9.54441e-05
-9.65978e-05
-9.77542e-05
-9.89138e-05
-0.000100077
-0.000101242
-0.000102412
-0.000103588
-0.00010477
-0.000105958
-0.000107153
-0.000108353
-0.000109561
-0.000110775
-0.000111995
-0.000113222
-0.000114455
-0.000115698
-0.000116951
-0.000118214
-0.000119485
-0.000120764
-0.00012205
-0.000123343
-0.000124642
-0.000125949
-0.000127263
-0.000128586
-0.000129914
-0.000131247
-0.000132584
-0.000133926
-0.000135273
-0.000136622
-0.000137972
-0.000139322
-0.000140671
-0.000142017
-0.000143362
-0.000144703
-0.000146038
-0.000147364
-0.00014868
-0.000149985
-0.000151278
-0.000152556
-0.000153818
-0.000155061
-0.000156282
-0.000157479
-0.00015865
-0.000159795
-0.000160911
-0.000161995
-0.000163044
-0.000164055
-0.000165026
-0.000165957
-0.000166845
-0.000167688
-0.000168483
-0.000169227
-0.000169918
-0.000170552
-0.000171128
-0.000171645
-0.000172102
-0.000172497
-0.000172828
-0.000173095
-0.000173295
-0.000173429
-0.000173493
-0.000173489
-0.000173417
-0.000173276
-0.000173031
-0.000172649
-8.56128e-06
-8.26049e-06
-8.13029e-06
-8.14433e-06
-8.26103e-06
-8.46956e-06
-8.76508e-06
-9.14132e-06
-9.59169e-06
-1.01099e-05
-1.06913e-05
-1.13329e-05
-1.20312e-05
-1.27827e-05
-1.35837e-05
-1.44311e-05
-1.53227e-05
-1.62567e-05
-1.72297e-05
-1.82383e-05
-1.92803e-05
-2.03549e-05
-2.14604e-05
-2.2593e-05
-2.37501e-05
-2.49305e-05
-2.6131e-05
-2.73489e-05
-2.85846e-05
-2.98371e-05
-3.11031e-05
-3.23804e-05
-3.36675e-05
-3.4962e-05
-3.62626e-05
-3.75675e-05
-3.8875e-05
-4.01843e-05
-4.14951e-05
-4.28069e-05
-4.412e-05
-4.54338e-05
-4.67468e-05
-4.80571e-05
-4.93641e-05
-5.06679e-05
-5.1968e-05
-5.32644e-05
-5.45568e-05
-5.58439e-05
-5.71251e-05
-5.84001e-05
-5.96689e-05
-6.09319e-05
-6.21886e-05
-6.34389e-05
-6.46832e-05
-6.59224e-05
-6.71566e-05
-6.83853e-05
-6.96078e-05
-7.08238e-05
-7.20336e-05
-7.3237e-05
-7.44341e-05
-7.56249e-05
-7.68107e-05
-7.79932e-05
-7.91732e-05
-8.03506e-05
-8.15254e-05
-8.26982e-05
-8.38692e-05
-8.50388e-05
-8.62069e-05
-8.73732e-05
-8.85387e-05
-8.97042e-05
-9.08702e-05
-9.20371e-05
-9.32057e-05
-9.43771e-05
-9.55525e-05
-9.67318e-05
-9.79135e-05
-9.90972e-05
-0.000100283
-0.000101473
-0.000102667
-0.000103866
-0.00010507
-0.000106281
-0.000107497
-0.000108719
-0.000109947
-0.000111181
-0.00011242
-0.000113666
-0.000114918
-0.000116179
-0.00011745
-0.000118729
-0.000120016
-0.000121309
-0.000122607
-0.000123912
-0.000125224
-0.000126541
-0.000127865
-0.000129194
-0.000130529
-0.000131867
-0.00013321
-0.000134555
-0.000135904
-0.000137254
-0.000138604
-0.000139954
-0.000141301
-0.000142644
-0.000143984
-0.00014532
-0.000146648
-0.000147967
-0.000149276
-0.000150572
-0.000151855
-0.000153123
-0.000154373
-0.000155604
-0.000156812
-0.000157996
-0.000159154
-0.000160285
-0.000161386
-0.000162456
-0.000163491
-0.000164488
-0.000165447
-0.000166365
-0.000167241
-0.000168073
-0.000168858
-0.000169593
-0.000170276
-0.000170904
-0.000171474
-0.000171987
-0.000172442
-0.000172835
-0.000173166
-0.000173432
-0.000173631
-0.000173764
-0.000173829
-0.000173824
-0.000173751
-0.000173607
-0.000173357
-0.000172968
-8.62556e-06
-8.32415e-06
-8.18414e-06
-8.18012e-06
-8.27643e-06
-8.46431e-06
-8.73756e-06
-9.09225e-06
-9.52311e-06
-1.00234e-05
-1.0588e-05
-1.12123e-05
-1.18933e-05
-1.26288e-05
-1.34145e-05
-1.42467e-05
-1.51231e-05
-1.60414e-05
-1.69994e-05
-1.79939e-05
-1.90214e-05
-2.00809e-05
-2.11714e-05
-2.22894e-05
-2.34323e-05
-2.45989e-05
-2.57865e-05
-2.69918e-05
-2.82143e-05
-2.94536e-05
-3.07077e-05
-3.19745e-05
-3.32519e-05
-3.45368e-05
-3.58276e-05
-3.71235e-05
-3.8423e-05
-3.9726e-05
-4.1032e-05
-4.23397e-05
-4.36487e-05
-4.4959e-05
-4.62693e-05
-4.75785e-05
-4.88856e-05
-5.01899e-05
-5.1491e-05
-5.27889e-05
-5.4084e-05
-5.53752e-05
-5.66619e-05
-5.79433e-05
-5.92189e-05
-6.04894e-05
-6.17548e-05
-6.30153e-05
-6.42713e-05
-6.55228e-05
-6.67702e-05
-6.80131e-05
-6.92505e-05
-7.04819e-05
-7.17076e-05
-7.29274e-05
-7.4142e-05
-7.53518e-05
-7.65574e-05
-7.77601e-05
-7.89606e-05
-8.01591e-05
-8.13559e-05
-8.2551e-05
-8.37446e-05
-8.49367e-05
-8.61276e-05
-8.73169e-05
-8.8505e-05
-8.96934e-05
-9.0883e-05
-9.20738e-05
-9.32665e-05
-9.44621e-05
-9.56615e-05
-9.68647e-05
-9.80702e-05
-9.92774e-05
-0.000100487
-0.000101699
-0.000102916
-0.000104138
-0.000105365
-0.000106597
-0.000107835
-0.000109078
-0.000110326
-0.000111579
-0.000112838
-0.000114102
-0.000115373
-0.000116653
-0.000117941
-0.000119237
-0.000120539
-0.000121846
-0.000123158
-0.000124475
-0.000125798
-0.000127127
-0.00012846
-0.000129798
-0.000131139
-0.000132484
-0.000133832
-0.000135182
-0.000136534
-0.000137886
-0.000139237
-0.000140587
-0.000141933
-0.000143276
-0.000144613
-0.000145944
-0.000147267
-0.000148581
-0.000149883
-0.000151173
-0.000152449
-0.000153708
-0.000154949
-0.000156169
-0.000157366
-0.000158539
-0.000159686
-0.000160806
-0.000161895
-0.000162952
-0.000163976
-0.000164962
-0.00016591
-0.000166818
-0.000167685
-0.000168509
-0.000169286
-0.000170015
-0.000170692
-0.000171314
-0.000171881
-0.000172392
-0.000172845
-0.000173238
-0.000173569
-0.000173836
-0.000174037
-0.00017417
-0.000174237
-0.000174234
-0.000174162
-0.000174019
-0.000173769
-0.000173381
-8.55844e-06
-8.26415e-06
-8.12289e-06
-8.10949e-06
-8.19397e-06
-8.36937e-06
-8.62929e-06
-8.96888e-06
-9.38389e-06
-9.86983e-06
-1.04211e-05
-1.10325e-05
-1.17004e-05
-1.24221e-05
-1.31948e-05
-1.40145e-05
-1.4878e-05
-1.57829e-05
-1.67279e-05
-1.77104e-05
-1.87266e-05
-1.97742e-05
-2.08521e-05
-2.19581e-05
-2.30889e-05
-2.42428e-05
-2.54191e-05
-2.66146e-05
-2.78271e-05
-2.90562e-05
-3.03004e-05
-3.15579e-05
-3.28265e-05
-3.41037e-05
-3.53871e-05
-3.6676e-05
-3.79695e-05
-3.92674e-05
-4.05695e-05
-4.18749e-05
-4.3182e-05
-4.449e-05
-4.57985e-05
-4.71067e-05
-4.8414e-05
-4.972e-05
-5.10239e-05
-5.2325e-05
-5.36234e-05
-5.49186e-05
-5.62105e-05
-5.74985e-05
-5.87816e-05
-6.006e-05
-6.13346e-05
-6.26055e-05
-6.3873e-05
-6.5137e-05
-6.63973e-05
-6.76538e-05
-6.89058e-05
-7.01527e-05
-7.13941e-05
-7.263e-05
-7.38613e-05
-7.50894e-05
-7.63147e-05
-7.75373e-05
-7.8758e-05
-7.99773e-05
-8.11952e-05
-8.24118e-05
-8.36271e-05
-8.48409e-05
-8.60537e-05
-8.72654e-05
-8.8476e-05
-8.96868e-05
-9.08988e-05
-9.21126e-05
-9.33291e-05
-9.45489e-05
-9.57719e-05
-9.69978e-05
-9.82258e-05
-9.94555e-05
-0.000100687
-0.000101923
-0.000103162
-0.000104406
-0.000105654
-0.000106908
-0.000108167
-0.000109431
-0.0001107
-0.000111972
-0.000113249
-0.000114532
-0.000115823
-0.000117121
-0.000118426
-0.000119738
-0.000121055
-0.000122377
-0.000123702
-0.000125032
-0.000126367
-0.000127707
-0.000129051
-0.000130398
-0.000131747
-0.000133098
-0.000134452
-0.000135808
-0.000137164
-0.000138519
-0.000139872
-0.000141222
-0.000142569
-0.000143911
-0.000145248
-0.000146576
-0.000147896
-0.000149206
-0.000150503
-0.000151787
-0.000153056
-0.000154309
-0.000155542
-0.000156753
-0.000157942
-0.000159106
-0.000160244
-0.000161355
-0.000162435
-0.000163482
-0.000164495
-0.000165472
-0.000166412
-0.000167313
-0.000168174
-0.000168992
-0.000169764
-0.000170487
-0.000171159
-0.000171779
-0.000172344
-0.000172853
-0.000173306
-0.0001737
-0.000174032
-0.000174302
-0.000174506
-0.000174643
-0.000174713
-0.000174715
-0.000174647
-0.000174508
-0.000174263
-0.000173882
-8.36821e-06
-8.08675e-06
-7.952e-06
-7.93801e-06
-8.01599e-06
-8.1847e-06
-8.4381e-06
-8.76917e-06
-9.17405e-06
-9.64894e-06
-1.01897e-05
-1.07916e-05
-1.14496e-05
-1.21607e-05
-1.2923e-05
-1.37326e-05
-1.4586e-05
-1.54805e-05
-1.64145e-05
-1.73866e-05
-1.83936e-05
-1.9432e-05
-2.05001e-05
-2.15968e-05
-2.27179e-05
-2.38616e-05
-2.5028e-05
-2.6215e-05
-2.74199e-05
-2.86416e-05
-2.98786e-05
-3.11286e-05
-3.239e-05
-3.36606e-05
-3.49382e-05
-3.62222e-05
-3.75119e-05
-3.88063e-05
-4.01056e-05
-4.14094e-05
-4.27159e-05
-4.40236e-05
-4.5332e-05
-4.66404e-05
-4.79484e-05
-4.92564e-05
-5.05637e-05
-5.18692e-05
-5.31723e-05
-5.44728e-05
-5.57703e-05
-5.70647e-05
-5.83555e-05
-5.96426e-05
-6.09268e-05
-6.22083e-05
-6.34875e-05
-6.47641e-05
-6.60374e-05
-6.73071e-05
-6.85733e-05
-6.98353e-05
-7.10924e-05
-7.23444e-05
-7.35926e-05
-7.48385e-05
-7.60825e-05
-7.73245e-05
-7.85651e-05
-7.98047e-05
-8.10433e-05
-8.22808e-05
-8.35172e-05
-8.4752e-05
-8.59859e-05
-8.72192e-05
-8.8452e-05
-8.96849e-05
-9.09189e-05
-9.2155e-05
-9.33946e-05
-9.46377e-05
-9.58836e-05
-9.71317e-05
-9.83813e-05
-9.96328e-05
-0.000100887
-0.000102144
-0.000103406
-0.000104671
-0.000105941
-0.000107216
-0.000108496
-0.000109781
-0.000111069
-0.00011236
-0.000113657
-0.000114959
-0.000116268
-0.000117584
-0.000118907
-0.000120234
-0.000121566
-0.000122902
-0.000124241
-0.000125584
-0.000126931
-0.000128283
-0.000129637
-0.000130993
-0.000132351
-0.00013371
-0.000135071
-0.000136433
-0.000137793
-0.000139152
-0.000140507
-0.000141859
-0.000143207
-0.00014455
-0.000145887
-0.000147215
-0.000148533
-0.00014984
-0.000151134
-0.000152413
-0.000153677
-0.000154923
-0.00015615
-0.000157355
-0.000158538
-0.000159695
-0.000160827
-0.00016193
-0.000163003
-0.000164042
-0.000165048
-0.000166017
-0.000166951
-0.000167848
-0.000168704
-0.000169518
-0.000170287
-0.000171006
-0.000171674
-0.000172292
-0.000172856
-0.000173366
-0.00017382
-0.000174216
-0.000174552
-0.000174826
-0.000175035
-0.000175178
-0.000175255
-0.000175264
-0.000175203
-0.000175071
-0.000174836
-0.000174469
-8.06183e-06
-7.79753e-06
-7.67535e-06
-7.66809e-06
-7.74723e-06
-7.91345e-06
-8.16365e-06
-8.4919e-06
-8.89218e-06
-9.36044e-06
-9.89401e-06
-1.04888e-05
-1.11398e-05
-1.18435e-05
-1.25975e-05
-1.33993e-05
-1.42456e-05
-1.51327e-05
-1.60586e-05
-1.70225e-05
-1.80218e-05
-1.9053e-05
-2.01138e-05
-2.12029e-05
-2.23171e-05
-2.34537e-05
-2.46123e-05
-2.57922e-05
-2.69911e-05
-2.82074e-05
-2.94393e-05
-3.06841e-05
-3.194e-05
-3.32056e-05
-3.4479e-05
-3.57598e-05
-3.70475e-05
-3.83407e-05
-3.96389e-05
-4.09418e-05
-4.2248e-05
-4.35565e-05
-4.48665e-05
-4.61771e-05
-4.74876e-05
-4.87985e-05
-5.01096e-05
-5.14199e-05
-5.27288e-05
-5.40355e-05
-5.53396e-05
-5.6641e-05
-5.794e-05
-5.92363e-05
-6.05305e-05
-6.1823e-05
-6.31141e-05
-6.44033e-05
-6.56898e-05
-6.69731e-05
-6.82531e-05
-6.95294e-05
-7.08018e-05
-7.20702e-05
-7.33356e-05
-7.4599e-05
-7.58613e-05
-7.71223e-05
-7.83823e-05
-7.96417e-05
-8.09003e-05
-8.21582e-05
-8.34151e-05
-8.46705e-05
-8.59248e-05
-8.7179e-05
-8.84333e-05
-8.96879e-05
-9.09438e-05
-9.22021e-05
-9.3464e-05
-9.47293e-05
-9.59972e-05
-9.72667e-05
-9.85377e-05
-9.98105e-05
-0.000101086
-0.000102365
-0.000103648
-0.000104935
-0.000106226
-0.000107523
-0.000108823
-0.000110127
-0.000111435
-0.000112746
-0.000114061
-0.000115381
-0.000116709
-0.000118043
-0.000119383
-0.000120726
-0.000122073
-0.000123422
-0.000124775
-0.000126132
-0.000127492
-0.000128854
-0.000130219
-0.000131585
-0.000132952
-0.000134319
-0.000135688
-0.000137056
-0.000138421
-0.000139784
-0.000141143
-0.000142497
-0.000143847
-0.000145192
-0.00014653
-0.000147858
-0.000149175
-0.00015048
-0.000151772
-0.000153049
-0.000154309
-0.000155551
-0.000156772
-0.000157973
-0.000159151
-0.000160305
-0.000161432
-0.00016253
-0.000163597
-0.000164631
-0.00016563
-0.000166595
-0.000167525
-0.000168418
-0.000169272
-0.000170084
-0.00017085
-0.000171567
-0.000172233
-0.000172849
-0.000173414
-0.000173926
-0.000174384
-0.000174785
-0.000175125
-0.000175405
-0.000175622
-0.000175773
-0.000175859
-0.000175877
-0.000175827
-0.000175707
-0.000175485
-0.000175138
-7.64726e-06
-7.40395e-06
-7.29636e-06
-7.30175e-06
-7.38946e-06
-7.55842e-06
-7.80923e-06
-8.13733e-06
-8.53709e-06
-9.00371e-06
-9.53353e-06
-1.01238e-05
-1.07707e-05
-1.14698e-05
-1.22182e-05
-1.30143e-05
-1.38553e-05
-1.47379e-05
-1.56592e-05
-1.66172e-05
-1.76109e-05
-1.86369e-05
-1.9692e-05
-2.0775e-05
-2.18845e-05
-2.30168e-05
-2.41705e-05
-2.53454e-05
-2.654e-05
-2.77524e-05
-2.89808e-05
-3.02222e-05
-3.14744e-05