/*--------------------------------*- C++ -*----------------------------------*\
  =========                 |
  \\      /  F ield         | OpenFOAM: The Open Source CFD Toolbox
   \\    /   O peration     | Website:  https://openfoam.org
    \\  /    A nd           | Version:  7
     \\/     M anipulation  |
\*---------------------------------------------------------------------------*/
FoamFile
{
    version     2.0;
    format      ascii;
    class       volScalarField;
    location    "0.45";
    object      p;
}
// * * * * * * * * * * * * * * * * * * * * * * * * * * * * * * * * * * * * * //

dimensions      [0 2 -2 0 0 0 0];

internalField   nonuniform List<scalar> 
51200
(
-1.39351e-06
-3.33318e-06
-2.72086e-06
-9.34411e-08
4.3653e-06
1.04633e-05
1.76145e-05
2.56431e-05
3.43898e-05
4.35113e-05
5.28799e-05
6.22964e-05
7.15837e-05
8.06078e-05
8.92759e-05
9.74998e-05
0.000105227
0.00011236
0.000118818
0.000124535
0.000129442
0.000133492
0.000136676
0.000138996
0.000140445
0.000141005
0.000140646
0.000139338
0.00013707
0.000133854
0.000129701
0.000124591
0.000118497
0.000111424
0.000103395
9.44314e-05
8.45481e-05
7.37604e-05
6.20805e-05
4.95163e-05
3.60763e-05
2.17697e-05
6.61732e-06
-9.35112e-06
-2.61193e-05
-4.36805e-05
-6.20121e-05
-8.10787e-05
-0.000100854
-0.000121319
-0.000142449
-0.000164223
-0.000186628
-0.000209653
-0.000233285
-0.000257501
-0.000282274
-0.000307577
-0.000333383
-0.000359669
-0.000386411
-0.000413589
-0.000441185
-0.000469179
-0.00049755
-0.000526268
-0.000555309
-0.00058465
-0.000614264
-0.000644126
-0.000674209
-0.000704494
-0.000734965
-0.000765604
-0.000796393
-0.000827308
-0.000858324
-0.00088942
-0.000920575
-0.00095177
-0.000982983
-0.00101419
-0.00104537
-0.00107649
-0.00110752
-0.00113845
-0.00116925
-0.00119992
-0.00123042
-0.00126073
-0.00129083
-0.00132069
-0.00135031
-0.00137965
-0.00140868
-0.00143739
-0.00146575
-0.00149374
-0.00152134
-0.00154853
-0.00157527
-0.00160155
-0.00162734
-0.00165263
-0.00167739
-0.0017016
-0.00172523
-0.00174825
-0.00177066
-0.00179243
-0.00181354
-0.00183396
-0.00185366
-0.00187264
-0.00189086
-0.00190832
-0.001925
-0.00194086
-0.00195589
-0.00197007
-0.00198339
-0.00199583
-0.00200738
-0.00201803
-0.00202776
-0.00203655
-0.0020444
-0.00205129
-0.00205724
-0.00206223
-0.00206626
-0.00206933
-0.00207143
-0.00207259
-0.00207279
-0.00207205
-0.00207038
-0.00206781
-0.00206435
-0.00206004
-0.00205491
-0.002049
-0.00204237
-0.00203506
-0.00202714
-0.00201869
-0.00200979
-0.00200056
-0.00199109
-0.00198153
-0.00197203
-0.00196275
-0.00195388
-0.00194566
-0.00193834
-0.00193217
-0.00192745
-0.00192443
-0.00192332
-0.00192384
-2.14236e-06
-3.09073e-06
-2.36607e-06
8.25574e-08
4.06156e-06
9.27298e-06
1.548e-05
2.24753e-05
3.00845e-05
3.81245e-05
4.64285e-05
5.47627e-05
6.29853e-05
7.09932e-05
7.87189e-05
8.60681e-05
9.2962e-05
9.93178e-05
0.000105055
0.000110087
0.000114355
0.000117833
0.000120506
0.000122374
0.000123432
0.000123645
0.000122969
0.000121388
0.000118904
0.000115524
0.000111245
0.000106035
9.98695e-05
9.27637e-05
8.47472e-05
7.58304e-05
6.602e-05
5.53397e-05
4.38027e-05
3.14007e-05
1.81388e-05
4.04126e-06
-1.08702e-05
-2.65807e-05
-4.30773e-05
-6.03457e-05
-7.83614e-05
-9.70929e-05
-0.000116516
-0.000136612
-0.000157356
-0.000178729
-0.000200722
-0.000223328
-0.00024653
-0.000270302
-0.000294622
-0.000319463
-0.000344798
-0.000370602
-0.000396853
-0.000423536
-0.000450632
-0.000478121
-0.000505977
-0.000534177
-0.000562695
-0.000591509
-0.000620592
-0.000649915
-0.000679456
-0.000709197
-0.000739124
-0.000769218
-0.000799459
-0.000829823
-0.000860287
-0.00089083
-0.000921432
-0.000952074
-0.000982735
-0.00101339
-0.00104401
-0.00107457
-0.00110505
-0.00113543
-0.00116569
-0.0011958
-0.00122575
-0.00125552
-0.00128508
-0.00131441
-0.00134349
-0.00137229
-0.0014008
-0.00142899
-0.00145683
-0.00148431
-0.00151141
-0.00153809
-0.00156434
-0.00159014
-0.00161546
-0.00164028
-0.00166458
-0.00168834
-0.00171153
-0.00173413
-0.00175613
-0.0017775
-0.00179822
-0.00181827
-0.00183762
-0.00185626
-0.00187417
-0.00189133
-0.00190772
-0.00192333
-0.00193812
-0.00195209
-0.00196522
-0.0019775
-0.00198892
-0.00199946
-0.00200911
-0.00201786
-0.00202569
-0.00203262
-0.00203863
-0.00204372
-0.00204789
-0.00205114
-0.00205346
-0.00205488
-0.0020554
-0.00205502
-0.00205377
-0.00205165
-0.00204871
-0.00204496
-0.00204045
-0.00203522
-0.00202931
-0.00202279
-0.00201572
-0.00200817
-0.00200023
-0.00199199
-0.00198356
-0.00197508
-0.00196668
-0.00195852
-0.00195076
-0.0019436
-0.00193724
-0.00193189
-0.00192778
-0.00192511
-0.00192408
-0.00192455
-3.66017e-06
-4.50851e-06
-3.63437e-06
-1.16922e-06
2.45942e-06
7.14152e-06
1.26881e-05
1.89855e-05
2.58593e-05
3.31219e-05
4.06063e-05
4.81185e-05
5.55422e-05
6.27878e-05
6.97858e-05
7.64439e-05
8.26829e-05
8.84262e-05
9.35801e-05
9.80573e-05
0.000101813
0.000104829
0.000107088
0.000108588
0.000109317
0.000109231
0.000108285
0.000106473
0.000103812
0.000100296
9.58965e-05
9.0587e-05
8.43599e-05
7.72294e-05
6.92146e-05
6.03263e-05
5.05746e-05
3.99799e-05
2.85496e-05
1.62714e-05
3.15307e-06
-1.07725e-05
-2.54874e-05
-4.09903e-05
-5.72678e-05
-7.42945e-05
-9.20476e-05
-0.000110504
-0.000129639
-0.000149427
-0.000169849
-0.00019089
-0.000212543
-0.000234801
-0.000257645
-0.000281051
-0.000304994
-0.00032945
-0.000354389
-0.000379789
-0.000405631
-0.000431899
-0.000458576
-0.000485639
-0.000513065
-0.00054083
-0.000568911
-0.000597282
-0.000625915
-0.000654784
-0.00068387
-0.000713155
-0.000742625
-0.00077226
-0.00080204
-0.00083194
-0.000861939
-0.000892017
-0.000922153
-0.00095233
-0.000982527
-0.00101272
-0.00104287
-0.00107296
-0.00110298
-0.00113289
-0.00116268
-0.00119234
-0.00122183
-0.00125113
-0.00128024
-0.00130912
-0.00133775
-0.00136611
-0.00139417
-0.00142192
-0.00144933
-0.00147638
-0.00150305
-0.00152932
-0.00155516
-0.00158055
-0.00160547
-0.0016299
-0.00165382
-0.00167721
-0.00170003
-0.00172228
-0.00174394
-0.00176498
-0.00178538
-0.00180512
-0.00182418
-0.00184254
-0.00186019
-0.00187711
-0.00189327
-0.00190867
-0.00192327
-0.00193707
-0.00195005
-0.0019622
-0.00197352
-0.00198398
-0.00199358
-0.00200229
-0.00201012
-0.00201708
-0.00202314
-0.00202832
-0.00203261
-0.00203602
-0.00203854
-0.00204018
-0.00204096
-0.00204088
-0.00203997
-0.00203824
-0.00203571
-0.00203243
-0.00202842
-0.00202374
-0.00201842
-0.00201252
-0.00200611
-0.00199927
-0.00199206
-0.00198459
-0.00197697
-0.00196929
-0.00196169
-0.00195433
-0.00194735
-0.00194091
-0.00193518
-0.00193032
-0.00192651
-0.00192396
-0.00192299
-0.00192355
-7.0402e-06
-7.50905e-06
-6.30512e-06
-3.83663e-06
-3.49994e-07
4.10741e-06
9.28471e-06
1.51245e-05
2.15021e-05
2.81925e-05
3.50639e-05
4.19577e-05
4.87753e-05
5.54306e-05
6.18533e-05
6.7961e-05
7.36758e-05
7.89067e-05
8.35632e-05
8.75736e-05
9.08966e-05
9.35201e-05
9.54378e-05
9.66336e-05
9.70743e-05
9.67185e-05
9.55364e-05
9.35324e-05
9.0721e-05
8.70782e-05
8.25621e-05
7.71571e-05
7.08717e-05
6.37124e-05
5.56889e-05
4.6821e-05
3.71217e-05
2.65953e-05
1.52426e-05
3.06382e-06
-9.92895e-06
-2.37095e-05
-3.82645e-05
-5.35941e-05
-6.96835e-05
-8.65032e-05
-0.000104032
-0.000122251
-0.000141135
-0.000160656
-0.000180798
-0.000201554
-0.000222915
-0.000244871
-0.000267405
-0.000290493
-0.000314109
-0.000338227
-0.000362821
-0.000387869
-0.000413354
-0.000439261
-0.000465571
-0.00049226
-0.000519308
-0.000546692
-0.000574386
-0.000602366
-0.000630602
-0.000659072
-0.000687757
-0.000716642
-0.00074571
-0.000774941
-0.000804314
-0.000833806
-0.000863395
-0.000893062
-0.000922789
-0.000952558
-0.000982344
-0.00101212
-0.00104186
-0.00107154
-0.00110114
-0.00113065
-0.00116003
-0.00118928
-0.00121836
-0.00124727
-0.00127597
-0.00130445
-0.00133269
-0.00136066
-0.00138833
-0.00141569
-0.00144272
-0.0014694
-0.0014957
-0.0015216
-0.00154707
-0.00157211
-0.00159669
-0.00162078
-0.00164437
-0.00166743
-0.00168994
-0.00171188
-0.00173324
-0.001754
-0.00177413
-0.0017936
-0.00181241
-0.00183053
-0.00184796
-0.00186467
-0.00188064
-0.00189585
-0.0019103
-0.00192395
-0.00193681
-0.00194886
-0.00196009
-0.00197049
-0.00198004
-0.00198874
-0.00199658
-0.00200356
-0.00200969
-0.00201495
-0.00201935
-0.00202289
-0.00202558
-0.00202743
-0.00202844
-0.00202862
-0.002028
-0.00202659
-0.00202442
-0.00202153
-0.00201795
-0.00201372
-0.00200889
-0.0020035
-0.00199763
-0.00199135
-0.00198473
-0.00197786
-0.00197084
-0.00196377
-0.00195677
-0.00194998
-0.00194353
-0.00193756
-0.00193223
-0.00192766
-0.00192399
-0.0019214
-0.00192024
-0.00192056
-1.20123e-05
-1.17581e-05
-1.02648e-05
-7.63861e-06
-4.10685e-06
2.11978e-07
5.18876e-06
1.07536e-05
1.67562e-05
2.30073e-05
2.93785e-05
3.57588e-05
4.20749e-05
4.82315e-05
5.41621e-05
5.97939e-05
6.50419e-05
6.98091e-05
7.40159e-05
7.76022e-05
8.05292e-05
8.2795e-05
8.43992e-05
8.53094e-05
8.54747e-05
8.48622e-05
8.34649e-05
8.12892e-05
7.83315e-05
7.4556e-05
6.99239e-05
6.44291e-05
5.8084e-05
5.08901e-05
4.28544e-05
3.40028e-05
2.43482e-05
1.38791e-05
2.59238e-06
-9.49581e-06
-2.23697e-05
-3.60173e-05
-5.04294e-05
-6.55989e-05
-8.151e-05
-9.81369e-05
-0.000115458
-0.000133455
-0.000152101
-0.000171369
-0.000191249
-0.000211736
-0.000232823
-0.000254495
-0.000276735
-0.000299521
-0.000322826
-0.000346622
-0.000370886
-0.0003956
-0.000420746
-0.000446308
-0.000472267
-0.0004986
-0.000525288
-0.000552307
-0.000579632
-0.000607235
-0.000635092
-0.00066318
-0.000691483
-0.000719985
-0.000748668
-0.000777511
-0.000806494
-0.000835594
-0.00086479
-0.000894065
-0.000923401
-0.000952778
-0.000982169
-0.00101155
-0.00104089
-0.00107017
-0.00109938
-0.0011285
-0.00115749
-0.00118634
-0.00121504
-0.00124356
-0.00127188
-0.00129998
-0.00132784
-0.00135543
-0.00138273
-0.00140972
-0.00143639
-0.00146271
-0.00148866
-0.0015142
-0.00153934
-0.00156404
-0.00158829
-0.00161206
-0.00163533
-0.00165808
-0.0016803
-0.00170195
-0.00172303
-0.00174352
-0.00176338
-0.00178261
-0.00180118
-0.00181908
-0.0018363
-0.00185282
-0.00186861
-0.00188366
-0.00189795
-0.00191147
-0.00192422
-0.00193618
-0.00194734
-0.00195768
-0.00196719
-0.00197588
-0.00198373
-0.00199075
-0.00199693
-0.00200228
-0.00200679
-0.00201047
-0.00201332
-0.00201535
-0.00201658
-0.00201701
-0.00201667
-0.00201556
-0.00201372
-0.00201119
-0.00200799
-0.00200418
-0.00199979
-0.00199486
-0.00198947
-0.00198367
-0.00197756
-0.00197121
-0.00196471
-0.00195815
-0.00195163
-0.00194526
-0.00193919
-0.00193353
-0.00192842
-0.00192402
-0.00192039
-0.00191765
-0.0019161
-0.00191584
-1.833e-05
-1.72625e-05
-1.52745e-05
-1.2378e-05
-8.69532e-06
-4.33333e-06
5.87527e-07
5.98096e-06
1.17085e-05
1.76155e-05
2.36029e-05
2.95847e-05
3.54921e-05
4.12368e-05
4.67567e-05
5.19774e-05
5.68115e-05
6.11647e-05
6.49633e-05
6.81652e-05
7.07443e-05
7.27e-05
7.40209e-05
7.466e-05
7.45625e-05
7.37145e-05
7.21281e-05
6.97969e-05
6.66913e-05
6.27777e-05
5.80341e-05
5.24556e-05
4.6047e-05
3.8814e-05
3.07693e-05
2.19331e-05
1.23104e-05
1.88472e-06
-9.34293e-06
-2.13471e-05
-3.41132e-05
-4.76418e-05
-6.19253e-05
-7.69471e-05
-9.26916e-05
-0.000109141
-0.000126272
-0.00014406
-0.000162481
-0.000181514
-0.000201151
-0.000221388
-0.000242217
-0.000263623
-0.000285588
-0.00030809
-0.000331101
-0.000354594
-0.000378548
-0.000402945
-0.00042777
-0.000453006
-0.000478632
-0.000504628
-0.000530974
-0.000557647
-0.00058462
-0.000611866
-0.000639362
-0.000667088
-0.000695029
-0.000723166
-0.000751483
-0.000779957
-0.000808569
-0.000837296
-0.000866118
-0.000895021
-0.000923985
-0.000952987
-0.000982002
-0.001011
-0.00103996
-0.00106887
-0.00109771
-0.00112645
-0.00115507
-0.00118355
-0.00121188
-0.00124003
-0.00126799
-0.00129573
-0.00132323
-0.00135046
-0.0013774
-0.00140405
-0.00143037
-0.00145635
-0.00148196
-0.00150718
-0.00153199
-0.00155637
-0.00158031
-0.00160378
-0.00162675
-0.00164921
-0.00167115
-0.00169253
-0.00171335
-0.00173358
-0.0017532
-0.0017722
-0.00179055
-0.00180825
-0.00182527
-0.00184161
-0.00185723
-0.00187213
-0.00188629
-0.00189969
-0.00191234
-0.00192422
-0.00193531
-0.0019456
-0.00195509
-0.00196377
-0.00197163
-0.00197869
-0.00198493
-0.00199036
-0.00199498
-0.00199878
-0.00200179
-0.002004
-0.00200544
-0.0020061
-0.002006
-0.00200518
-0.00200365
-0.00200144
-0.00199859
-0.00199514
-0.00199114
-0.00198662
-0.00198165
-0.00197629
-0.0019706
-0.00196467
-0.00195859
-0.00195243
-0.00194629
-0.00194027
-0.00193447
-0.001929
-0.00192398
-0.00191955
-0.00191581
-0.00191282
-0.00191075
-0.00190967
-2.58676e-05
-2.3832e-05
-2.11345e-05
-1.78657e-05
-1.3925e-05
-9.40196e-06
-4.43116e-06
8.83786e-07
6.43065e-06
1.20943e-05
1.78093e-05
2.34882e-05
2.90751e-05
3.44987e-05
3.96878e-05
4.45606e-05
4.90323e-05
5.3019e-05
5.64555e-05
5.93195e-05
6.16022e-05
6.3291e-05
6.43506e-05
6.47309e-05
6.4395e-05
6.33446e-05
6.15914e-05
5.91112e-05
5.58599e-05
5.18141e-05
4.69662e-05
4.13054e-05
3.48306e-05
2.75594e-05
1.95083e-05
1.06811e-05
1.07468e-06
-9.3172e-06
-2.04869e-05
-3.24136e-05
-4.50874e-05
-5.85123e-05
-7.26794e-05
-8.75672e-05
-0.000103161
-0.000119448
-0.000136403
-0.000153997
-0.00017221
-0.000191027
-0.000210442
-0.000230449
-0.000251038
-0.000272198
-0.000293908
-0.000316144
-0.00033888
-0.000362089
-0.000385752
-0.000409855
-0.00043438
-0.000459309
-0.000484623
-0.000510303
-0.000536329
-0.000562676
-0.000589317
-0.000616227
-0.000643384
-0.00067077
-0.000698369
-0.000726165
-0.000754136
-0.000782263
-0.000810524
-0.0008389
-0.000867371
-0.000895923
-0.000924536
-0.000953184
-0.000981841
-0.00101048
-0.00103909
-0.00106765
-0.00109613
-0.00112451
-0.00115278
-0.00118092
-0.0012089
-0.0012367
-0.00126432
-0.00129172
-0.00131887
-0.00134577
-0.00137239
-0.00139871
-0.00142471
-0.00145036
-0.00147566
-0.00150056
-0.00152507
-0.00154916
-0.00157281
-0.00159599
-0.00161869
-0.00164088
-0.00166255
-0.00168369
-0.00170426
-0.00172426
-0.00174365
-0.00176243
-0.00178059
-0.0017981
-0.00181495
-0.00183112
-0.00184659
-0.00186135
-0.00187538
-0.00188868
-0.00190124
-0.00191305
-0.00192408
-0.00193434
-0.0019438
-0.00195247
-0.00196036
-0.00196745
-0.00197375
-0.00197926
-0.00198398
-0.00198791
-0.00199106
-0.00199344
-0.00199507
-0.00199594
-0.00199607
-0.0019955
-0.00199424
-0.00199233
-0.00198979
-0.00198667
-0.001983
-0.00197884
-0.00197422
-0.00196922
-0.00196389
-0.00195832
-0.00195255
-0.0019467
-0.00194083
-0.00193503
-0.0019294
-0.00192402
-0.00191899
-0.00191442
-0.00191043
-0.00190706
-0.00190436
-0.00190231
-3.42671e-05
-3.11658e-05
-2.77681e-05
-2.39635e-05
-1.96397e-05
-1.48788e-05
-9.79915e-06
-4.49263e-06
9.67574e-07
6.49861e-06
1.2034e-05
1.75013e-05
2.28564e-05
2.80324e-05
3.29506e-05
3.75266e-05
4.16833e-05
4.535e-05
4.84768e-05
5.10588e-05
5.30911e-05
5.45416e-05
5.5356e-05
5.54976e-05
5.49568e-05
5.37367e-05
5.18294e-05
4.91996e-05
4.58085e-05
4.16409e-05
3.66912e-05
3.09467e-05
2.44095e-05
1.71055e-05
9.04643e-06
2.18949e-07
-9.38189e-06
-1.97458e-05
-3.08614e-05
-4.27206e-05
-5.53175e-05
-6.86497e-05
-8.27087e-05
-9.74762e-05
-0.000112937
-0.000129077
-0.000145868
-0.000163283
-0.000181304
-0.000199924
-0.000219135
-0.00023893
-0.0002593
-0.000280233
-0.000301707
-0.000323695
-0.000346173
-0.000369118
-0.000392512
-0.000416339
-0.000440583
-0.000465226
-0.000490249
-0.000515634
-0.00054136
-0.000567401
-0.00059373
-0.000620324
-0.000647163
-0.000674231
-0.000701511
-0.000728985
-0.000756633
-0.000784432
-0.000812363
-0.000840408
-0.00086855
-0.000896773
-0.000925054
-0.000953368
-0.000981688
-0.00100999
-0.00103827
-0.00106649
-0.00109464
-0.00112269
-0.00115063
-0.00117844
-0.00120609
-0.00123358
-0.00126087
-0.00128795
-0.00131478
-0.00134136
-0.00136767
-0.00139368
-0.00141938
-0.00144474
-0.00146974
-0.00149436
-0.00151858
-0.0015424
-0.00156577
-0.00158869
-0.00161112
-0.00163307
-0.0016545
-0.0016754
-0.00169575
-0.00171553
-0.00173472
-0.0017533
-0.00177127
-0.00178861
-0.0018053
-0.00182132
-0.00183665
-0.00185129
-0.00186521
-0.00187842
-0.00189091
-0.00190264
-0.00191363
-0.00192385
-0.0019333
-0.00194198
-0.00194988
-0.00195702
-0.00196338
-0.00196896
-0.00197377
-0.00197782
-0.00198111
-0.00198365
-0.00198544
-0.0019865
-0.00198685
-0.00198651
-0.00198549
-0.00198384
-0.00198158
-0.00197874
-0.00197536
-0.00197149
-0.00196718
-0.00196247
-0.00195744
-0.00195214
-0.00194663
-0.00194098
-0.0019353
-0.00192963
-0.00192407
-0.00191868
-0.00191356
-0.00190876
-0.00190441
-0.00190056
-0.00189715
-0.00189403
-4.3366e-05
-3.91083e-05
-3.49193e-05
-3.05194e-05
-2.57596e-05
-2.07063e-05
-1.54575e-05
-1.00704e-05
-4.60363e-06
8.77322e-07
6.31708e-06
1.16611e-05
1.68599e-05
2.18472e-05
2.65465e-05
3.08715e-05
3.47506e-05
3.81408e-05
4.10156e-05
4.33728e-05
4.51918e-05
4.64231e-05
4.70129e-05
4.69467e-05
4.62338e-05
4.48642e-05
4.28085e-05
4.0034e-05
3.65148e-05
3.22333e-05
2.71803e-05
2.13543e-05
1.47643e-05
7.4294e-06
-6.47814e-07
-9.48438e-06
-1.90817e-05
-2.94195e-05
-4.04883e-05
-5.22915e-05
-6.48239e-05
-7.80743e-05
-9.20355e-05
-0.000106696
-0.000122039
-0.000138043
-0.000154682
-0.000171934
-0.000189782
-0.000208222
-0.000227246
-0.000246848
-0.000267018
-0.000287742
-0.000308996
-0.000330755
-0.000352993
-0.000375693
-0.000398837
-0.000422408
-0.000446389
-0.000470765
-0.000495517
-0.000520628
-0.000546073
-0.000571827
-0.000597864
-0.000624163
-0.000650706
-0.000677477
-0.000704459
-0.000731632
-0.000758974
-0.000786466
-0.000814087
-0.000841822
-0.000869656
-0.00089757
-0.000925539
-0.000953537
-0.000981542
-0.00100953
-0.0010375
-0.00106541
-0.00109324
-0.00112098
-0.00114861
-0.00117611
-0.00120346
-0.00123064
-0.00125763
-0.00128441
-0.00131095
-0.00133723
-0.00136325
-0.00138898
-0.00141439
-0.00143947
-0.00146419
-0.00148855
-0.00151251
-0.00153606
-0.00155919
-0.00158185
-0.00160405
-0.00162577
-0.00164698
-0.00166767
-0.00168781
-0.00170738
-0.00172638
-0.00174479
-0.00176259
-0.00177978
-0.00179632
-0.0018122
-0.00182741
-0.00184193
-0.00185576
-0.00186889
-0.0018813
-0.00189299
-0.00190393
-0.00191413
-0.00192357
-0.00193225
-0.00194018
-0.00194736
-0.00195378
-0.00195943
-0.00196434
-0.00196849
-0.00197191
-0.00197459
-0.00197655
-0.00197778
-0.00197831
-0.00197817
-0.00197738
-0.00197595
-0.00197393
-0.00197134
-0.00196821
-0.00196458
-0.00196052
-0.00195605
-0.00195125
-0.00194617
-0.00194084
-0.00193535
-0.00192976
-0.00192414
-0.00191856
-0.00191308
-0.00190778
-0.00190268
-0.00189791
-0.00189351
-0.00188932
-0.0018851
-5.28362e-05
-4.74143e-05
-4.23829e-05
-3.73924e-05
-3.217e-05
-2.67827e-05
-2.13024e-05
-1.57574e-05
-1.02065e-05
-4.70415e-06
7.17347e-07
6.00852e-06
1.11096e-05
1.59541e-05
2.04723e-05
2.4588e-05
2.82396e-05
3.14087e-05
3.40883e-05
3.62606e-05
3.78847e-05
3.89124e-05
3.93101e-05
3.9077e-05
3.82189e-05
3.67082e-05
3.45079e-05
3.15978e-05
2.79601e-05
2.35692e-05
1.84167e-05
1.25177e-05
5.88304e-06
-1.48634e-06
-9.59436e-06
-1.84461e-05
-2.80376e-05
-3.83524e-05
-4.9385e-05
-6.11418e-05
-7.36174e-05
-8.67972e-05
-0.000100675
-0.000115242
-0.000130478
-0.000146356
-0.000162855
-0.000179958
-0.000197652
-0.000215928
-0.000234784
-0.000254211
-0.000274199
-0.000294731
-0.000315782
-0.000337328
-0.000359346
-0.00038182
-0.000404732
-0.000428065
-0.000451803
-0.000475931
-0.000500432
-0.000525288
-0.000550472
-0.000575958
-0.000601723
-0.000627748
-0.000654016
-0.000680511
-0.000707214
-0.000734105
-0.000761163
-0.000788366
-0.000815698
-0.000843144
-0.00087069
-0.000898314
-0.00092599
-0.000953694
-0.000981405
-0.0010091
-0.00103677
-0.00106439
-0.00109194
-0.00111939
-0.00114673
-0.00117394
-0.001201
-0.0012279
-0.00125461
-0.0012811
-0.00130736
-0.00133338
-0.00135913
-0.00138459
-0.00140973
-0.00143455
-0.00145902
-0.00148313
-0.00150685
-0.00153016
-0.00155305
-0.00157549
-0.00159747
-0.00161897
-0.00163998
-0.00166047
-0.00168042
-0.00169981
-0.00171864
-0.00173688
-0.00175453
-0.00177158
-0.00178799
-0.00180375
-0.00181884
-0.00183327
-0.00184701
-0.00186007
-0.00187242
-0.00188406
-0.00189497
-0.00190514
-0.00191458
-0.00192328
-0.00193124
-0.00193845
-0.00194493
-0.00195066
-0.00195565
-0.0019599
-0.00196343
-0.00196625
-0.00196835
-0.00196974
-0.00197045
-0.00197049
-0.00196988
-0.00196865
-0.00196684
-0.00196447
-0.00196155
-0.00195813
-0.00195425
-0.00194998
-0.00194535
-0.00194041
-0.00193522
-0.00192981
-0.00192425
-0.00191861
-0.00191294
-0.00190731
-0.00190175
-0.00189631
-0.00189106
-0.00188608
-0.00188106
-0.00187571
-6.25277e-05
-5.59592e-05
-5.00941e-05
-4.44976e-05
-3.87932e-05
-3.30195e-05
-2.72351e-05
-2.14719e-05
-1.57698e-05
-1.01717e-05
-4.70519e-06
5.83715e-07
5.6321e-06
1.03713e-05
1.47402e-05
1.8683e-05
2.21615e-05
2.51711e-05
2.77025e-05
2.9716e-05
3.11594e-05
3.20053e-05
3.2248e-05
3.18821e-05
3.08931e-05
2.92488e-05
2.69182e-05
2.38837e-05
2.01281e-05
1.56292e-05
1.03873e-05
4.42526e-06
-2.25249e-06
-9.66165e-06
-1.78055e-05
-2.66735e-05
-3.62599e-05
-4.65596e-05
-5.75678e-05
-6.92858e-05
-8.17099e-05
-9.483e-05
-0.000108638
-0.000123124
-0.000138263
-0.000154027
-0.0001704
-0.000187369
-0.000204923
-0.000223054
-0.000241758
-0.000261029
-0.000280853
-0.000301208
-0.000322071
-0.000343421
-0.000365238
-0.000387504
-0.000410202
-0.000433315
-0.000456829
-0.000480729
-0.000505
-0.000529619
-0.000554559
-0.000579797
-0.00060531
-0.000631082
-0.000657095
-0.000683334
-0.000709778
-0.000736407
-0.000763198
-0.000790133
-0.000817196
-0.000844376
-0.000871653
-0.000899006
-0.000926409
-0.000953838
-0.000981276
-0.0010087
-0.0010361
-0.00106345
-0.00109072
-0.0011179
-0.00114497
-0.00117191
-0.00119871
-0.00122535
-0.00125179
-0.00127802
-0.00130403
-0.00132979
-0.00135529
-0.0013805
-0.0014054
-0.00142998
-0.00145422
-0.00147809
-0.00150159
-0.00152468
-0.00154735
-0.00156958
-0.00159136
-0.00161267
-0.00163349
-0.0016538
-0.00167357
-0.0016928
-0.00171147
-0.00172958
-0.00174709
-0.001764
-0.0017803
-0.00179595
-0.00181094
-0.00182528
-0.00183895
-0.00185195
-0.00186425
-0.00187585
-0.00188674
-0.0018969
-0.00190634
-0.00191505
-0.00192304
-0.00193029
-0.00193682
-0.00194262
-0.00194769
-0.00195205
-0.00195568
-0.00195862
-0.00196085
-0.00196239
-0.00196324
-0.00196344
-0.001963
-0.00196195
-0.0019603
-0.00195811
-0.00195537
-0.00195212
-0.00194841
-0.00194427
-0.00193975
-0.00193491
-0.00192978
-0.00192441
-0.00191884
-0.00191312
-0.00190731
-0.00190147
-0.0018956
-0.00188977
-0.00188401
-0.0018784
-0.00187254
-0.00186606
-7.22786e-05
-6.46328e-05
-5.7944e-05
-5.17239e-05
-4.54959e-05
-3.92834e-05
-3.31493e-05
-2.71223e-05
-2.12169e-05
-1.54649e-05
-9.90661e-06
-4.58484e-06
4.41455e-07
5.10626e-06
9.36004e-06
1.31769e-05
1.65411e-05
1.94419e-05
2.18519e-05
2.37224e-05
2.50117e-05
2.57142e-05
2.58347e-05
2.53529e-05
2.42397e-05
2.24723e-05
2.00265e-05
1.68759e-05
1.3004e-05
8.4055e-06
3.08792e-06
-2.93416e-06
-9.66304e-06
-1.71163e-05
-2.52928e-05
-3.41755e-05
-4.3761e-05
-5.40536e-05
-6.50469e-05
-7.67345e-05
-8.91166e-05
-0.000102189
-0.000115939
-0.00013035
-0.000145401
-0.000161065
-0.000177327
-0.000194177
-0.000211606
-0.000229608
-0.000248179
-0.00026731
-0.000286984
-0.000307178
-0.000327871
-0.000349043
-0.000370676
-0.000392751
-0.000415252
-0.000438164
-0.000461473
-0.000485166
-0.000509225
-0.000533625
-0.000558341
-0.00058335
-0.000608631
-0.000634168
-0.000659947
-0.000685949
-0.000712154
-0.000738539
-0.000765082
-0.000791768
-0.000818584
-0.000845517
-0.000872546
-0.000899646
-0.000926795
-0.000953971
-0.000981157
-0.00100833
-0.00103548
-0.00106257
-0.00108959
-0.00111652
-0.00114334
-0.00117004
-0.00119659
-0.00122298
-0.00124918
-0.00127517
-0.00130094
-0.00132647
-0.00135174
-0.00137672
-0.0014014
-0.00142576
-0.00144978
-0.00147344
-0.00149673
-0.00151962
-0.00154209
-0.00156413
-0.00158573
-0.00160686
-0.00162751
-0.00164765
-0.00166727
-0.00168635
-0.00170488
-0.00172286
-0.00174025
-0.00175705
-0.00177323
-0.00178879
-0.0018037
-0.00181796
-0.00183157
-0.00184452
-0.00185678
-0.00186835
-0.00187921
-0.00188937
-0.00189881
-0.00190754
-0.00191556
-0.00192287
-0.00192945
-0.00193531
-0.00194046
-0.0019449
-0.00194864
-0.00195168
-0.00195403
-0.00195569
-0.00195669
-0.00195703
-0.00195674
-0.00195583
-0.00195433
-0.00195228
-0.00194968
-0.00194657
-0.00194298
-0.00193894
-0.0019345
-0.00192971
-0.0019246
-0.00191921
-0.00191358
-0.00190774
-0.00190174
-0.00189563
-0.00188942
-0.00188315
-0.00187686
-0.00187062
-0.00186391
-0.00185632
-8.20123e-05
-7.3315e-05
-6.58108e-05
-5.89528e-05
-5.21641e-05
-4.5478e-05
-3.89564e-05
-3.26153e-05
-2.64611e-05
-2.05232e-05
-1.48473e-05
-9.47256e-06
-4.44876e-06
1.72832e-07
4.36102e-06
8.10978e-06
1.14084e-05
1.42283e-05
1.65279e-05
1.82739e-05
1.94481e-05
2.00489e-05
2.00696e-05
1.94811e-05
1.8255e-05
1.63761e-05
1.38198e-05
1.05555e-05
6.57575e-06
1.89249e-06
-3.48893e-06
-9.57222e-06
-1.63609e-05
-2.38597e-05
-3.20652e-05
-4.09655e-05
-5.05573e-05
-6.08469e-05
-7.18294e-05
-8.34963e-05
-9.58492e-05
-0.000108886
-0.000122588
-0.000136934
-0.000151904
-0.00016748
-0.000183644
-0.00020039
-0.000217711
-0.000235602
-0.000254056
-0.000273062
-0.000292599
-0.000312648
-0.000333187
-0.000354199
-0.000375665
-0.000397567
-0.000419889
-0.000442618
-0.000465742
-0.000489247
-0.000513112
-0.000537312
-0.000561821
-0.000586619
-0.000611687
-0.000637011
-0.000662575
-0.000688359
-0.000714342
-0.000740501
-0.000766816
-0.000793275
-0.000819864
-0.000846569
-0.000873368
-0.000900235
-0.00092715
-0.000954094
-0.000981049
-0.00100799
-0.0010349
-0.00106176
-0.00108854
-0.00111524
-0.00114184
-0.00116831
-0.00119464
-0.0012208
-0.00124677
-0.00127255
-0.0012981
-0.00132341
-0.00134847
-0.00137324
-0.00139771
-0.00142187
-0.00144569
-0.00146916
-0.00149226
-0.00151497
-0.00153726
-0.00155913
-0.00158057
-0.00160154
-0.00162203
-0.00164202
-0.00166149
-0.00168044
-0.00169885
-0.00171671
-0.001734
-0.0017507
-0.00176679
-0.00178226
-0.0017971
-0.0018113
-0.00182486
-0.00183777
-0.00184999
-0.00186154
-0.00187239
-0.00188254
-0.001892
-0.00190075
-0.00190881
-0.00191615
-0.00192279
-0.00192871
-0.00193394
-0.00193846
-0.0019423
-0.00194544
-0.00194789
-0.00194967
-0.00195078
-0.00195125
-0.00195108
-0.0019503
-0.00194892
-0.00194697
-0.00194449
-0.00194149
-0.00193799
-0.00193402
-0.00192962
-0.00192484
-0.00191969
-0.00191424
-0.00190851
-0.00190251
-0.0018963
-0.00188989
-0.0018833
-0.00187657
-0.00186974
-0.00186285
-0.00185531
-0.00184664
-9.15965e-05
-8.18606e-05
-7.3537e-05
-6.60255e-05
-5.86697e-05
-5.14995e-05
-4.45622e-05
-3.78741e-05
-3.14483e-05
-2.53085e-05
-1.94964e-05
-1.40531e-05
-9.01235e-06
-4.39703e-06
-2.19943e-07
3.51291e-06
6.77765e-06
9.53189e-06
1.17387e-05
1.33903e-05
1.44849e-05
1.50083e-05
1.49417e-05
1.42601e-05
1.29382e-05
1.09551e-05
8.28648e-06
4.91347e-06
8.40215e-07
-3.91683e-06
-9.36011e-06
-1.55055e-05
-2.23537e-05
-2.98961e-05
-3.81308e-05
-4.70546e-05
-5.66614e-05
-6.69524e-05
-7.79277e-05
-8.95838e-05
-0.00010192
-0.000114929
-0.000128591
-0.000142882
-0.000157784
-0.000173281
-0.000189362
-0.000206017
-0.000223245
-0.000241042
-0.000259395
-0.000278289
-0.000297705
-0.000317624
-0.000338026
-0.000358895
-0.000380211
-0.000401956
-0.000424118
-0.000446684
-0.000469642
-0.000492977
-0.000516665
-0.000540681
-0.000565002
-0.000589608
-0.000614484
-0.000639614
-0.000664982
-0.000690566
-0.000716344
-0.000742295
-0.000768402
-0.000794654
-0.000821037
-0.000847534
-0.00087412
-0.000900774
-0.000927476
-0.000954208
-0.00098095
-0.00100768
-0.00103437
-0.00106102
-0.00108759
-0.00111408
-0.00114046
-0.00116673
-0.00119285
-0.0012188
-0.00124457
-0.00127014
-0.0012955
-0.00132062
-0.00134548
-0.00137006
-0.00139434
-0.00141832
-0.00144196
-0.00146526
-0.00148819
-0.00151073
-0.00153286
-0.00155458
-0.00157586
-0.00159669
-0.00161704
-0.00163689
-0.00165625
-0.00167508
-0.00169339
-0.00171114
-0.00172834
-0.00174495
-0.00176096
-0.00177636
-0.00179114
-0.00180529
-0.00181881
-0.00183168
-0.00184388
-0.00185541
-0.00186626
-0.00187642
-0.00188589
-0.00189467
-0.00190276
-0.00191015
-0.00191683
-0.00192282
-0.00192811
-0.00193272
-0.00193664
-0.00193987
-0.00194242
-0.0019443
-0.00194552
-0.00194609
-0.00194603
-0.00194536
-0.00194409
-0.00194223
-0.00193982
-0.00193688
-0.00193344
-0.00192952
-0.00192514
-0.00192032
-0.00191512
-0.00190957
-0.00190369
-0.00189751
-0.00189104
-0.00188431
-0.00187733
-0.00187012
-0.00186273
-0.0018552
-0.00184686
-0.00183713
-0.000100903
-9.01466e-05
-8.10134e-05
-7.28504e-05
-6.49187e-05
-5.72513e-05
-4.98875e-05
-4.28435e-05
-3.61397e-05
-2.97915e-05
-2.38348e-05
-1.83007e-05
-1.32043e-05
-8.54593e-06
-4.33453e-06
-5.91251e-07
2.64905e-06
5.35238e-06
7.50082e-06
9.09723e-06
1.01374e-05
1.05947e-05
1.04495e-05
9.68581e-06
8.27713e-06
6.19322e-06
3.41812e-06
-4.80979e-08
-4.19915e-06
-9.02794e-06
-1.45402e-05
-2.07485e-05
-2.76504e-05
-3.52338e-05
-4.34995e-05
-5.24504e-05
-6.20779e-05
-7.23784e-05
-8.33564e-05
-9.50121e-05
-0.00010734
-0.000120327
-0.000133955
-0.000148201
-0.000163046
-0.000178479
-0.000194488
-0.000211069
-0.000228221
-0.000245936
-0.000264201
-0.000282998
-0.000302308
-0.000322113
-0.000342396
-0.000363137
-0.000384319
-0.000405925
-0.000427945
-0.000450367
-0.000473179
-0.00049636
-0.000519888
-0.000543738
-0.000567888
-0.000592323
-0.000617025
-0.00064198
-0.000667169
-0.00069257
-0.000718161
-0.000743923
-0.000769843
-0.000795909
-0.000822105
-0.000848411
-0.000874804
-0.000901265
-0.000927775
-0.000954314
-0.000980861
-0.00100739
-0.00103389
-0.00106034
-0.00108672
-0.00111302
-0.00113921
-0.00116529
-0.00119121
-0.00121698
-0.00124256
-0.00126796
-0.00129313
-0.00131807
-0.00134276
-0.00136717
-0.00139129
-0.0014151
-0.00143858
-0.00146172
-0.00148449
-0.00150688
-0.00152888
-0.00155046
-0.00157161
-0.00159231
-0.00161253
-0.00163227
-0.00165151
-0.00167025
-0.00168846
-0.00170614
-0.00172325
-0.00173979
-0.00175573
-0.00177107
-0.0017858
-0.00179992
-0.0018134
-0.00182624
-0.00183843
-0.00184995
-0.0018608
-0.00187098
-0.00188047
-0.00188928
-0.0018974
-0.00190484
-0.00191158
-0.00191762
-0.00192298
-0.00192766
-0.00193166
-0.00193498
-0.00193762
-0.00193959
-0.0019409
-0.00194156
-0.00194159
-0.001941
-0.00193981
-0.00193803
-0.00193569
-0.00193279
-0.00192938
-0.00192546
-0.00192107
-0.00191621
-0.00191092
-0.00190524
-0.00189919
-0.00189279
-0.00188605
-0.00187899
-0.0018716