/*--------------------------------*- C++ -*----------------------------------*\
  =========                 |
  \\      /  F ield         | OpenFOAM: The Open Source CFD Toolbox
   \\    /   O peration     | Website:  https://openfoam.org
    \\  /    A nd           | Version:  7
     \\/     M anipulation  |
\*---------------------------------------------------------------------------*/
FoamFile
{
    version     2.0;
    format      ascii;
    class       volVectorField;
    location    "0.45";
    object      U;
}
// * * * * * * * * * * * * * * * * * * * * * * * * * * * * * * * * * * * * * //

dimensions      [0 1 -1 0 0 0 0];

internalField   nonuniform List<vector> 
51200
(
(-1.78321e-09 1.74406e-08 0)
(-3.72474e-08 2.93184e-08 0)
(-1.09417e-07 3.28659e-08 0)
(-1.76417e-07 2.92703e-08 0)
(-2.25037e-07 2.07152e-08 0)
(-2.45164e-07 1.09406e-08 0)
(-2.31654e-07 -4.66675e-10 0)
(-1.84943e-07 -1.20912e-08 0)
(-1.02718e-07 -2.31204e-08 0)
(1.48993e-08 -3.43387e-08 0)
(1.66614e-07 -4.5191e-08 0)
(3.51903e-07 -5.51461e-08 0)
(5.69136e-07 -6.44387e-08 0)
(8.16256e-07 -7.3261e-08 0)
(1.09163e-06 -8.16007e-08 0)
(1.39359e-06 -8.93734e-08 0)
(1.72048e-06 -9.64846e-08 0)
(2.0708e-06 -1.03091e-07 0)
(2.44268e-06 -1.0918e-07 0)
(2.83435e-06 -1.14648e-07 0)
(3.2442e-06 -1.19517e-07 0)
(3.67046e-06 -1.23922e-07 0)
(4.11131e-06 -1.27904e-07 0)
(4.56521e-06 -1.31518e-07 0)
(5.03084e-06 -1.34809e-07 0)
(5.50696e-06 -1.37682e-07 0)
(5.9923e-06 -1.4002e-07 0)
(6.48556e-06 -1.4192e-07 0)
(6.98527e-06 -1.43555e-07 0)
(7.49013e-06 -1.44935e-07 0)
(7.99916e-06 -1.45961e-07 0)
(8.51147e-06 -1.46576e-07 0)
(9.02584e-06 -1.46836e-07 0)
(9.54094e-06 -1.4685e-07 0)
(1.00558e-05 -1.46662e-07 0)
(1.05697e-05 -1.46209e-07 0)
(1.10817e-05 -1.45466e-07 0)
(1.15909e-05 -1.4453e-07 0)
(1.20967e-05 -1.43432e-07 0)
(1.25982e-05 -1.42061e-07 0)
(1.30948e-05 -1.40408e-07 0)
(1.35857e-05 -1.38629e-07 0)
(1.40702e-05 -1.36758e-07 0)
(1.45477e-05 -1.34687e-07 0)
(1.50177e-05 -1.3239e-07 0)
(1.54798e-05 -1.29939e-07 0)
(1.59331e-05 -1.27366e-07 0)
(1.63773e-05 -1.24667e-07 0)
(1.68119e-05 -1.21858e-07 0)
(1.72365e-05 -1.18946e-07 0)
(1.76506e-05 -1.15928e-07 0)
(1.80539e-05 -1.12811e-07 0)
(1.84463e-05 -1.09582e-07 0)
(1.88272e-05 -1.0624e-07 0)
(1.91963e-05 -1.02813e-07 0)
(1.95533e-05 -9.93217e-08 0)
(1.98978e-05 -9.57508e-08 0)
(2.02297e-05 -9.21004e-08 0)
(2.05487e-05 -8.83993e-08 0)
(2.08545e-05 -8.46616e-08 0)
(2.1147e-05 -8.0866e-08 0)
(2.14261e-05 -7.6991e-08 0)
(2.16915e-05 -7.30525e-08 0)
(2.1943e-05 -6.90855e-08 0)
(2.21805e-05 -6.51003e-08 0)
(2.24038e-05 -6.10762e-08 0)
(2.26128e-05 -5.6999e-08 0)
(2.28074e-05 -5.28859e-08 0)
(2.29874e-05 -4.87656e-08 0)
(2.31528e-05 -4.46458e-08 0)
(2.33035e-05 -4.05073e-08 0)
(2.34395e-05 -3.63276e-08 0)
(2.35606e-05 -3.21094e-08 0)
(2.36669e-05 -2.78775e-08 0)
(2.37582e-05 -2.36489e-08 0)
(2.38345e-05 -1.94158e-08 0)
(2.38957e-05 -1.51631e-08 0)
(2.39419e-05 -1.0892e-08 0)
(2.3973e-05 -6.61579e-09 0)
(2.39889e-05 -2.34004e-09 0)
(2.39897e-05 1.93713e-09 0)
(2.39754e-05 6.21475e-09 0)
(2.39458e-05 1.04879e-08 0)
(2.39011e-05 1.47521e-08 0)
(2.38413e-05 1.90072e-08 0)
(2.37664e-05 2.32559e-08 0)
(2.36765e-05 2.74985e-08 0)
(2.35717e-05 3.17327e-08 0)
(2.34518e-05 3.59563e-08 0)
(2.33171e-05 4.01665e-08 0)
(2.31674e-05 4.43576e-08 0)
(2.3003e-05 4.85247e-08 0)
(2.28239e-05 5.2666e-08 0)
(2.26302e-05 5.67811e-08 0)
(2.2422e-05 6.08683e-08 0)
(2.21994e-05 6.49241e-08 0)
(2.19626e-05 6.89468e-08 0)
(2.17117e-05 7.2937e-08 0)
(2.14468e-05 7.68894e-08 0)
(2.11681e-05 8.07891e-08 0)
(2.08757e-05 8.46251e-08 0)
(2.05698e-05 8.84017e-08 0)
(2.02508e-05 9.21269e-08 0)
(1.99188e-05 9.57955e-08 0)
(1.95741e-05 9.93937e-08 0)
(1.92168e-05 1.02914e-07 0)
(1.88473e-05 1.06353e-07 0)
(1.8466e-05 1.09713e-07 0)
(1.8073e-05 1.12991e-07 0)
(1.76688e-05 1.16169e-07 0)
(1.72537e-05 1.1922e-07 0)
(1.68281e-05 1.22141e-07 0)
(1.63924e-05 1.24962e-07 0)
(1.59471e-05 1.27695e-07 0)
(1.54926e-05 1.30295e-07 0)
(1.50296e-05 1.32725e-07 0)
(1.45584e-05 1.34996e-07 0)
(1.40795e-05 1.37118e-07 0)
(1.35937e-05 1.39066e-07 0)
(1.31015e-05 1.40819e-07 0)
(1.26036e-05 1.42383e-07 0)
(1.21007e-05 1.43765e-07 0)
(1.15935e-05 1.44957e-07 0)
(1.10828e-05 1.45929e-07 0)
(1.05695e-05 1.46623e-07 0)
(1.00542e-05 1.4703e-07 0)
(9.53799e-06 1.47218e-07 0)
(9.02176e-06 1.47201e-07 0)
(8.50653e-06 1.46868e-07 0)
(7.99332e-06 1.46161e-07 0)
(7.4831e-06 1.45152e-07 0)
(6.97703e-06 1.43871e-07 0)
(6.47637e-06 1.42246e-07 0)
(5.9823e-06 1.40216e-07 0)
(5.49604e-06 1.37792e-07 0)
(5.0189e-06 1.34985e-07 0)
(4.5523e-06 1.31787e-07 0)
(4.09767e-06 1.28168e-07 0)
(3.65649e-06 1.24097e-07 0)
(3.2303e-06 1.19572e-07 0)
(2.82068e-06 1.14565e-07 0)
(2.42926e-06 1.08985e-07 0)
(2.05773e-06 1.02824e-07 0)
(1.70772e-06 9.61937e-08 0)
(1.38093e-06 8.91288e-08 0)
(1.0792e-06 8.14943e-08 0)
(8.04344e-07 7.31696e-08 0)
(5.58061e-07 6.42193e-08 0)
(3.42045e-07 5.47396e-08 0)
(1.57812e-07 4.47282e-08 0)
(6.67748e-09 3.42106e-08 0)
(-1.10127e-07 2.32484e-08 0)
(-1.91677e-07 1.19532e-08 0)
(-2.37908e-07 5.8168e-10 0)
(-2.49902e-07 -1.04499e-08 0)
(-2.3005e-07 -2.04779e-08 0)
(-1.82937e-07 -2.81215e-08 0)
(-1.17371e-07 -3.10027e-08 0)
(-5.07994e-08 -2.53977e-08 0)
(-9.98724e-09 -9.04997e-09 0)
(-2.32236e-08 6.27615e-08 0)
(-1.01822e-07 1.16319e-07 0)
(-2.17683e-07 1.24882e-07 0)
(-3.1804e-07 1.0028e-07 0)
(-3.6941e-07 5.50911e-08 0)
(-3.50572e-07 -1.6567e-09 0)
(-2.50576e-07 -6.62127e-08 0)
(-6.23089e-08 -1.34314e-07 0)
(2.17555e-07 -2.02994e-07 0)
(5.90082e-07 -2.7148e-07 0)
(1.05521e-06 -3.37921e-07 0)
(1.61078e-06 -4.01518e-07 0)
(2.25273e-06 -4.62211e-07 0)
(2.97706e-06 -5.20023e-07 0)
(3.77981e-06 -5.74593e-07 0)
(4.65704e-06 -6.25803e-07 0)
(5.6043e-06 -6.7339e-07 0)
(6.61686e-06 -7.17658e-07 0)
(7.69014e-06 -7.5859e-07 0)
(8.81955e-06 -7.96009e-07 0)
(1.00003e-05 -8.30026e-07 0)
(1.12278e-05 -8.60935e-07 0)
(1.24977e-05 -8.88855e-07 0)
(1.38054e-05 -9.13978e-07 0)
(1.51472e-05 -9.36377e-07 0)
(1.65195e-05 -9.55944e-07 0)
(1.79185e-05 -9.72605e-07 0)
(1.93399e-05 -9.86655e-07 0)
(2.07803e-05 -9.98477e-07 0)
(2.22362e-05 -1.00806e-06 0)
(2.37047e-05 -1.01523e-06 0)
(2.51825e-05 -1.02006e-06 0)
(2.66664e-05 -1.02284e-06 0)
(2.81529e-05 -1.02374e-06 0)
(2.96396e-05 -1.02279e-06 0)
(3.11239e-05 -1.02e-06 0)
(3.26033e-05 -1.01548e-06 0)
(3.40751e-05 -1.0094e-06 0)
(3.55373e-05 -1.00181e-06 0)
(3.69878e-05 -9.92623e-07 0)
(3.84241e-05 -9.81929e-07 0)
(3.98442e-05 -9.70027e-07 0)
(4.12463e-05 -9.57008e-07 0)
(4.26288e-05 -9.42708e-07 0)
(4.39899e-05 -9.27138e-07 0)
(4.5328e-05 -9.1052e-07 0)
(4.66414e-05 -8.92946e-07 0)
(4.79286e-05 -8.74404e-07 0)
(4.91884e-05 -8.54975e-07 0)
(5.04195e-05 -8.34765e-07 0)
(5.16206e-05 -8.13784e-07 0)
(5.27907e-05 -7.92033e-07 0)
(5.39289e-05 -7.69547e-07 0)
(5.5034e-05 -7.46372e-07 0)
(5.61049e-05 -7.22568e-07 0)
(5.7141e-05 -6.98187e-07 0)
(5.81412e-05 -6.73262e-07 0)
(5.91049e-05 -6.47842e-07 0)
(6.00311e-05 -6.21999e-07 0)
(6.09194e-05 -5.95754e-07 0)
(6.17692e-05 -5.69079e-07 0)
(6.258e-05 -5.4197e-07 0)
(6.33511e-05 -5.14495e-07 0)
(6.4082e-05 -4.86734e-07 0)
(6.47722e-05 -4.58709e-07 0)
(6.54213e-05 -4.30395e-07 0)
(6.60289e-05 -4.01797e-07 0)
(6.65947e-05 -3.72978e-07 0)
(6.71183e-05 -3.44006e-07 0)
(6.75994e-05 -3.14891e-07 0)
(6.80378e-05 -2.85597e-07 0)
(6.84333e-05 -2.56103e-07 0)
(6.87858e-05 -2.26445e-07 0)
(6.90949e-05 -1.96683e-07 0)
(6.93604e-05 -1.66849e-07 0)
(6.95823e-05 -1.36933e-07 0)
(6.97604e-05 -1.06927e-07 0)
(6.98947e-05 -7.68477e-08 0)
(6.99851e-05 -4.67248e-08 0)
(7.00314e-05 -1.6577e-08 0)
(7.00337e-05 1.3586e-08 0)
(6.99919e-05 4.37444e-08 0)
(6.9906e-05 7.38735e-08 0)
(6.97762e-05 1.03961e-07 0)
(6.96023e-05 1.34004e-07 0)
(6.93847e-05 1.64001e-07 0)
(6.91233e-05 1.93935e-07 0)
(6.88182e-05 2.23785e-07 0)
(6.84697e-05 2.53535e-07 0)
(6.80778e-05 2.83169e-07 0)
(6.76427e-05 3.12664e-07 0)
(6.71647e-05 3.41995e-07 0)
(6.6644e-05 3.71144e-07 0)
(6.60809e-05 4.00092e-07 0)
(6.54757e-05 4.28822e-07 0)
(6.48289e-05 4.57314e-07 0)
(6.41407e-05 4.85557e-07 0)
(6.34116e-05 5.13525e-07 0)
(6.2642e-05 5.41171e-07 0)
(6.18323e-05 5.68447e-07 0)
(6.09832e-05 5.95332e-07 0)
(6.00951e-05 6.21828e-07 0)
(5.91688e-05 6.47914e-07 0)
(5.8205e-05 6.73535e-07 0)
(5.72043e-05 6.98635e-07 0)
(5.61675e-05 7.23184e-07 0)
(5.50954e-05 7.47156e-07 0)
(5.3989e-05 7.70516e-07 0)
(5.28492e-05 7.93231e-07 0)
(5.16769e-05 8.15251e-07 0)
(5.04734e-05 8.36482e-07 0)
(4.92397e-05 8.56848e-07 0)
(4.79771e-05 8.76358e-07 0)
(4.66868e-05 8.95032e-07 0)
(4.53704e-05 9.12785e-07 0)
(4.40292e-05 9.29479e-07 0)
(4.26648e-05 9.45057e-07 0)
(4.12788e-05 9.59502e-07 0)
(3.98728e-05 9.72733e-07 0)
(3.84488e-05 9.84651e-07 0)
(3.70087e-05 9.95216e-07 0)
(3.55546e-05 1.0044e-06 0)
(3.40885e-05 1.01213e-06 0)
(3.26126e-05 1.0183e-06 0)
(3.11294e-05 1.02277e-06 0)
(2.96412e-05 1.0254e-06 0)
(2.81508e-05 1.02625e-06 0)
(2.66607e-05 1.02531e-06 0)
(2.51738e-05 1.02238e-06 0)
(2.36931e-05 1.01725e-06 0)
(2.22216e-05 1.00992e-06 0)
(2.07625e-05 1.00041e-06 0)
(1.93192e-05 9.8856e-07 0)
(1.78952e-05 9.74179e-07 0)
(1.64941e-05 9.57182e-07 0)
(1.51196e-05 9.37521e-07 0)
(1.37756e-05 9.15113e-07 0)
(1.2466e-05 8.89839e-07 0)
(1.11952e-05 8.61588e-07 0)
(9.96728e-06 8.3029e-07 0)
(8.78656e-06 7.95866e-07 0)
(7.65752e-06 7.58145e-07 0)
(6.58491e-06 7.16989e-07 0)
(5.57327e-06 6.72471e-07 0)
(4.62701e-06 6.24702e-07 0)
(3.75068e-06 5.73565e-07 0)
(2.94902e-06 5.18948e-07 0)
(2.22651e-06 4.61025e-07 0)
(1.58719e-06 4.00019e-07 0)
(1.03464e-06 3.36126e-07 0)
(5.71821e-07 2.69813e-07 0)
(2.00973e-07 2.01894e-07 0)
(-7.68255e-08 1.33415e-07 0)
(-2.62596e-07 6.58943e-08 0)
(-3.60295e-07 1.70273e-09 0)
(-3.77176e-07 -5.53921e-08 0)
(-3.25414e-07 -9.96201e-08 0)
(-2.2506e-07 -1.21665e-07 0)
(-1.10154e-07 -1.08519e-07 0)
(-2.70907e-08 -4.90337e-08 0)
(-2.97224e-08 1.24125e-07 0)
(-1.16698e-07 2.31204e-07 0)
(-2.2653e-07 2.33548e-07 0)
(-2.96821e-07 1.63035e-07 0)
(-2.86812e-07 4.42984e-08 0)
(-1.72516e-07 -1.07836e-07 0)
(6.34874e-08 -2.79324e-07 0)
(4.31783e-07 -4.61529e-07 0)
(9.38958e-07 -6.48302e-07 0)
(1.58761e-06 -8.3436e-07 0)
(2.37748e-06 -1.01656e-06 0)
(3.30564e-06 -1.1932e-06 0)
(4.36742e-06 -1.36311e-06 0)
(5.55749e-06 -1.52523e-06 0)
(6.87043e-06 -1.67877e-06 0)
(8.30019e-06 -1.82311e-06 0)
(9.83983e-06 -1.9582e-06 0)
(1.14824e-05 -2.08402e-06 0)
(1.32213e-05 -2.2005e-06 0)
(1.50491e-05 -2.30775e-06 0)
(1.69587e-05 -2.40593e-06 0)
(1.8943e-05 -2.49528e-06 0)
(2.09952e-05 -2.57617e-06 0)
(2.31083e-05 -2.64881e-06 0)
(2.52766e-05 -2.71325e-06 0)
(2.74939e-05 -2.76966e-06 0)
(2.9754e-05 -2.81843e-06 0)
(3.20505e-05 -2.85996e-06 0)
(3.43778e-05 -2.89463e-06 0)
(3.67308e-05 -2.92249e-06 0)
(3.91043e-05 -2.94356e-06 0)
(4.14929e-05 -2.95831e-06 0)
(4.38914e-05 -2.96729e-06 0)
(4.62951e-05 -2.97064e-06 0)
(4.86996e-05 -2.96842e-06 0)
(5.11007e-05 -2.96094e-06 0)
(5.34942e-05 -2.94858e-06 0)
(5.5876e-05 -2.93145e-06 0)
(5.82427e-05 -2.90971e-06 0)
(6.05907e-05 -2.88362e-06 0)
(6.29163e-05 -2.85346e-06 0)
(6.5216e-05 -2.8195e-06 0)
(6.74872e-05 -2.78189e-06 0)
(6.97269e-05 -2.74068e-06 0)
(7.19324e-05 -2.69608e-06 0)
(7.41008e-05 -2.64838e-06 0)
(7.62296e-05 -2.59776e-06 0)
(7.83165e-05 -2.54431e-06 0)
(8.03592e-05 -2.48822e-06 0)
(8.23557e-05 -2.42972e-06 0)
(8.43039e-05 -2.36889e-06 0)
(8.62022e-05 -2.30579e-06 0)
(8.80487e-05 -2.24058e-06 0)
(8.98418e-05 -2.17345e-06 0)
(9.15798e-05 -2.10448e-06 0)
(9.32613e-05 -2.03375e-06 0)
(9.48849e-05 -1.96143e-06 0)
(9.64494e-05 -1.88766e-06 0)
(9.79533e-05 -1.81256e-06 0)
(9.93959e-05 -1.73617e-06 0)
(0.000100776 -1.65852e-06 0)
(0.000102093 -1.57972e-06 0)
(0.000103345 -1.49989e-06 0)
(0.000104533 -1.41914e-06 0)
(0.000105654 -1.33752e-06 0)
(0.000106708 -1.25506e-06 0)
(0.000107696 -1.17183e-06 0)
(0.000108615 -1.08796e-06 0)
(0.000109466 -1.00353e-06 0)
(0.000110248 -9.18554e-07 0)
(0.000110961 -8.3303e-07 0)
(0.000111604 -7.47007e-07 0)
(0.000112177 -6.60579e-07 0)
(0.000112679 -5.7383e-07 0)
(0.000113111 -4.86796e-07 0)
(0.000113471 -3.99491e-07 0)
(0.000113761 -3.1195e-07 0)
(0.000113979 -2.24227e-07 0)
(0.000114126 -1.36375e-07 0)
(0.000114202 -4.84429e-08 0)
(0.000114205 3.95261e-08 0)
(0.000114138 1.27482e-07 0)
(0.000113998 2.1538e-07 0)
(0.000113787 3.03189e-07 0)
(0.000113505 3.90876e-07 0)
(0.000113151 4.78399e-07 0)
(0.000112726 5.65709e-07 0)
(0.00011223 6.52762e-07 0)
(0.000111664 7.3951e-07 0)
(0.000111027 8.25897e-07 0)
(0.00011032 9.11859e-07 0)
(0.000109543 9.9734e-07 0)
(0.000108697 1.08229e-06 0)
(0.000107782 1.16663e-06 0)
(0.000106799 1.25033e-06 0)
(0.000105748 1.33331e-06 0)
(0.000104631 1.41553e-06 0)
(0.000103446 1.49689e-06 0)
(0.000102196 1.57728e-06 0)
(0.000100881 1.65661e-06 0)
(9.95025e-05 1.73483e-06 0)
(9.80607e-05 1.81189e-06 0)
(9.65569e-05 1.88769e-06 0)
(9.49923e-05 1.96208e-06 0)
(9.33681e-05 2.03494e-06 0)
(9.16854e-05 2.10621e-06 0)
(8.99458e-05 2.17576e-06 0)
(8.81507e-05 2.24347e-06 0)
(8.63016e-05 2.30922e-06 0)
(8.44002e-05 2.3729e-06 0)
(8.24482e-05 2.43435e-06 0)
(8.04477e-05 2.49338e-06 0)
(7.84006e-05 2.54984e-06 0)
(7.63092e-05 2.60367e-06 0)
(7.41755e-05 2.65473e-06 0)
(7.2002e-05 2.70277e-06 0)
(6.97913e-05 2.74759e-06 0)
(6.75459e-05 2.78906e-06 0)
(6.52687e-05 2.82698e-06 0)
(6.29627e-05 2.86114e-06 0)
(6.0631e-05 2.89135e-06 0)
(5.82771e-05 2.91744e-06 0)
(5.59042e-05 2.93918e-06 0)
(5.3516e-05 2.95635e-06 0)
(5.11162e-05 2.96871e-06 0)
(4.8709e-05 2.97598e-06 0)
(4.62986e-05 2.97794e-06 0)
(4.38891e-05 2.97442e-06 0)
(4.14852e-05 2.96518e-06 0)
(3.90915e-05 2.94986e-06 0)
(3.67133e-05 2.92819e-06 0)
(3.43555e-05 2.90002e-06 0)
(3.20234e-05 2.86509e-06 0)
(2.97227e-05 2.82307e-06 0)
(2.7459e-05 2.77365e-06 0)
(2.52384e-05 2.71657e-06 0)
(2.30669e-05 2.65158e-06 0)
(2.09509e-05 2.57847e-06 0)
(1.8897e-05 2.49698e-06 0)
(1.69118e-05 2.40683e-06 0)
(1.50019e-05 2.30786e-06 0)
(1.31743e-05 2.19991e-06 0)
(1.14362e-05 2.08276e-06 0)
(9.79468e-06 1.95626e-06 0)
(8.25649e-06 1.82049e-06 0)
(6.82839e-06 1.67559e-06 0)
(5.51732e-06 1.52178e-06 0)
(4.32978e-06 1.35947e-06 0)
(3.27141e-06 1.18928e-06 0)
(2.34717e-06 1.0121e-06 0)
(1.56114e-06 8.29427e-07 0)
(9.15903e-07 6.43588e-07 0)
(4.11936e-07 4.57719e-07 0)
(4.67128e-08 2.76101e-07 0)
(-1.86113e-07 1.05204e-07 0)
(-2.97583e-07 -4.58502e-08 0)
(-3.04374e-07 -1.64551e-07 0)
(-2.31614e-07 -2.32864e-07 0)
(-1.21402e-07 -2.26118e-07 0)
(-3.16982e-08 -1.16643e-07 0)
(-2.68808e-08 1.8796e-07 0)
(-9.62704e-08 3.28961e-07 0)
(-1.60166e-07 3.02911e-07 0)
(-1.54259e-07 1.5989e-07 0)
(-3.94037e-08 -6.7694e-08 0)
(2.13372e-07 -3.51536e-07 0)
(6.24545e-07 -6.71221e-07 0)
(1.20587e-06 -1.01134e-06 0)
(1.96621e-06 -1.36052e-06 0)
(2.90945e-06 -1.71006e-06 0)
(4.03504e-06 -2.05449e-06 0)
(5.34006e-06 -2.38988e-06 0)
(6.81951e-06 -2.7136e-06 0)
(8.46744e-06 -3.02325e-06 0)
(1.0277e-05 -3.31715e-06 0)
(1.22405e-05 -3.59453e-06 0)
(1.43495e-05 -3.85488e-06 0)
(1.65951e-05 -4.09773e-06 0)
(1.89685e-05 -4.32304e-06 0)
(2.14606e-05 -4.531e-06 0)
(2.4062e-05 -4.72178e-06 0)
(2.67635e-05 -4.89578e-06 0)
(2.9556e-05 -5.0536e-06 0)
(3.24312e-05 -5.19539e-06 0)
(3.53807e-05 -5.32125e-06 0)
(3.83963e-05 -5.43174e-06 0)
(4.14695e-05 -5.52767e-06 0)
(4.45923e-05 -5.60962e-06 0)
(4.77572e-05 -5.6779e-06 0)
(5.09572e-05 -5.7328e-06 0)
(5.41852e-05 -5.77482e-06 0)
(5.74337e-05 -5.80469e-06 0)
(6.06961e-05 -5.82307e-06 0)
(6.39662e-05 -5.83028e-06 0)
(6.72378e-05 -5.82666e-06 0)
(7.05051e-05 -5.81285e-06 0)
(7.37625e-05 -5.7894e-06 0)
(7.70048e-05 -5.7565e-06 0)
(8.02269e-05 -5.7145e-06 0)
(8.34238e-05 -5.6641e-06 0)
(8.65906e-05 -5.60579e-06 0)
(8.9723e-05 -5.53979e-06 0)
(9.28169e-05 -5.46644e-06 0)
(9.58684e-05 -5.38613e-06 0)
(9.88735e-05 -5.29926e-06 0)
(0.000101829 -5.20619e-06 0)
(0.00010473 -5.10727e-06 0)
(0.000107575 -5.00282e-06 0)
(0.00011036 -4.89315e-06 0)
(0.000113082 -4.77859e-06 0)
(0.000115739 -4.65936e-06 0)
(0.000118329 -4.53568e-06 0)
(0.000120847 -4.40787e-06 0)
(0.000123294 -4.27621e-06 0)
(0.000125665 -4.14091e-06 0)
(0.00012796 -4.00216e-06 0)
(0.000130175 -3.86025e-06 0)
(0.000132311 -3.71543e-06 0)
(0.000134363 -3.56787e-06 0)
(0.000136333 -3.41769e-06 0)
(0.000138217 -3.26506e-06 0)
(0.000140015 -3.11018e-06 0)
(0.000141725 -2.95327e-06 0)
(0.000143346 -2.79447e-06 0)
(0.000144878 -2.63389e-06 0)
(0.000146318 -2.47166e-06 0)
(0.000147667 -2.30794e-06 0)
(0.000148923 -2.14292e-06 0)
(0.000150085 -1.97669e-06 0)
(0.000151154 -1.80932e-06 0)
(0.000152127 -1.64088e-06 0)
(0.000153006 -1.4715e-06 0)
(0.000153789 -1.30134e-06 0)
(0.000154475 -1.1305e-06 0)
(0.000155065 -9.59051e-07 0)
(0.000155558 -7.87063e-07 0)
(0.000155954 -6.14626e-07 0)
(0.000156252 -4.41838e-07 0)
(0.000156453 -2.68791e-07 0)
(0.000156556 -9.55767e-08 0)
(0.000156562 7.77089e-08 0)
(0.000156469 2.50974e-07 0)
(0.000156278 4.24142e-07 0)
(0.00015599 5.97144e-07 0)
(0.000155604 7.69899e-07 0)
(0.000155121 9.42312e-07 0)
(0.000154541 1.11429e-06 0)
(0.000153864 1.28573e-06 0)
(0.00015309 1.45655e-06 0)
(0.00015222 1.62664e-06 0)
(0.000151254 1.79588e-06 0)
(0.000150193 1.96416e-06 0)
(0.000149038 2.13137e-06 0)
(0.000147788 2.29739e-06 0)
(0.000146446 2.46209e-06 0)
(0.000145011 2.62536e-06 0)
(0.000143484 2.78708e-06 0)
(0.000141867 2.94707e-06 0)
(0.00014016 3.10513e-06 0)
(0.000138365 3.26112e-06 0)
(0.000136483 3.4149e-06 0)
(0.000134515 3.56632e-06 0)
(0.000132463 3.71517e-06 0)
(0.000130327 3.86124e-06 0)
(0.000128111 4.00431e-06 0)
(0.000125815 4.14418e-06 0)
(0.000123442 4.28065e-06 0)
(0.000120993 4.41346e-06 0)
(0.000118471 4.54235e-06 0)
(0.000115878 4.66705e-06 0)
(0.000113216 4.78735e-06 0)
(0.000110488 4.90295e-06 0)
(0.000107697 5.01353e-06 0)
(0.000104846 5.11879e-06 0)
(0.000101938 5.21847e-06 0)
(9.89763e-05 5.31222e-06 0)
(9.59639e-05 5.39965e-06 0)
(9.29049e-05 5.48041e-06 0)
(8.9803e-05 5.55418e-06 0)
(8.66623e-05 5.62058e-06 0)
(8.34871e-05 5.67923e-06 0)
(8.0282e-05 5.72974e-06 0)
(7.70516e-05 5.77162e-06 0)
(7.38009e-05 5.80444e-06 0)
(7.05349e-05 5.82786e-06 0)
(6.72591e-05 5.84146e-06 0)
(6.39794e-05 5.84466e-06 0)
(6.07015e-05 5.83697e-06 0)
(5.74315e-05 5.81803e-06 0)
(5.41758e-05 5.78736e-06 0)
(5.09413e-05 5.74439e-06 0)
(4.77349e-05 5.6886e-06 0)
(4.45636e-05 5.61958e-06 0)
(4.1435e-05 5.53682e-06 0)
(3.83566e-05 5.43981e-06 0)
(3.53364e-05 5.32803e-06 0)
(3.23827e-05 5.20097e-06 0)
(2.95038e-05 5.05823e-06 0)
(2.67083e-05 4.89939e-06 0)
(2.40051e-05 4.72396e-06 0)
(2.1403e-05 4.53163e-06 0)
(1.89109e-05 4.32225e-06 0)
(1.6538e-05 4.09566e-06 0)
(1.42934e-05 3.85158e-06 0)
(1.21861e-05 3.59002e-06 0)
(1.02247e-05 3.31148e-06 0)
(8.41755e-06 3.0167e-06 0)
(6.77272e-06 2.70655e-06 0)
(5.29705e-06 2.38241e-06 0)
(3.99646e-06 2.04633e-06 0)
(2.87563e-06 1.70127e-06 0)
(1.93721e-06 1.35155e-06 0)
(1.18101e-06 1.00306e-06 0)
(6.03597e-07 6.63863e-07 0)
(1.97052e-07 3.45448e-07 0)
(-5.22837e-08 6.33127e-08 0)
(-1.63928e-07 -1.62066e-07 0)
(-1.65056e-07 -3.03939e-07 0)
(-9.92997e-08 -3.26536e-07 0)
(-2.82997e-08 -1.82912e-07 0)
(-1.99278e-08 2.33296e-07 0)
(-5.30907e-08 3.77824e-07 0)
(-4.10368e-08 2.9459e-07 0)
(7.16101e-08 4.58061e-08 0)
(3.25974e-07 -3.21428e-07 0)
(7.51332e-07 -7.70134e-07 0)
(1.36727e-06 -1.27241e-06 0)
(2.18807e-06 -1.80624e-06 0)
(3.22342e-06 -2.35433e-06 0)
(4.47701e-06 -2.9051e-06 0)
(5.94851e-06 -3.44948e-06 0)
(7.63487e-06 -3.98137e-06 0)
(9.53112e-06 -4.49578e-06 0)
(1.16309e-05 -4.98896e-06 0)
(1.39261e-05 -5.45828e-06 0)
(1.64078e-05 -5.90229e-06 0)
(1.90663e-05 -6.31988e-06 0)
(2.18914e-05 -6.71024e-06 0)
(2.48724e-05 -7.07309e-06 0)
(2.79987e-05 -7.40853e-06 0)
(3.12589e-05 -7.71685e-06 0)
(3.4642e-05 -7.9986e-06 0)
(3.81375e-05 -8.25426e-06 0)
(4.17352e-05 -8.48412e-06 0)
(4.54248e-05 -8.68858e-06 0)
(4.91958e-05 -8.86855e-06 0)
(5.30382e-05 -9.02513e-06 0)
(5.69423e-05 -9.15896e-06 0)
(6.08991e-05 -9.27048e-06 0)
(6.48997e-05 -9.36043e-06 0)
(6.8935e-05 -9.42984e-06 0)
(7.29961e-05 -9.47958e-06 0)
(7.70748e-05 -9.51037e-06 0)
(8.11636e-05 -9.52292e-06 0)
(8.52547e-05 -9.51804e-06 0)
(8.93406e-05 -9.49654e-06 0)
(9.34148e-05 -9.45912e-06 0)
(9.74706e-05 -9.4063e-06 0)
(0.000101501 -9.33879e-06 0)
(0.000105501 -9.25753e-06 0)
(0.000109464 -9.16322e-06 0)
(0.000113384 -9.05628e-06 0)
(0.000117256 -8.93728e-06 0)
(0.000121076 -8.80694e-06 0)
(0.000124838 -8.66588e-06 0)
(0.000128538 -8.51458e-06 0)
(0.000132172 -8.35362e-06 0)
(0.000135735 -8.18361e-06 0)
(0.000139223 -8.00501e-06 0)
(0.000142633 -7.81827e-06 0)
(0.000145962 -7.62383e-06 0)
(0.000149206 -7.42214e-06 0)
(0.000152363 -7.21364e-06 0)
(0.000155428 -6.99875e-06 0)
(0.0001584 -6.77784e-06 0)
(0.000161277 -6.55129e-06 0)
(0.000164054 -6.31952e-06 0)
(0.000166731 -6.0829e-06 0)
(0.000169305 -5.84169e-06 0)
(0.000171775 -5.59615e-06 0)
(0.000174138 -5.34658e-06 0)
(0.000176392 -5.09332e-06 0)
(0.000178537 -4.83668e-06 0)
(0.000180571 -4.57686e-06 0)
(0.000182492 -4.31407e-06 0)
(0.000184299 -4.04858e-06 0)
(0.000185991 -3.78064e-06 0)
(0.000187567 -3.51048e-06 0)
(0.000189025 -3.23827e-06 0)
(0.000190366 -2.96414e-06 0)
(0.000191588 -2.68828e-06 0)
(0.00019269 -2.4109e-06 0)
(0.000193673 -2.13221e-06 0)
(0.000194534 -1.85236e-06 0)
(0.000195275 -1.57148e-06 0)
(0.000195893 -1.28971e-06 0)
(0.00019639 -1.00721e-06 0)
(0.000196765 -7.24132e-07 0)
(0.000197017 -4.4062e-07 0)
(0.000197147 -1.56835e-07 0)
(0.000197153 1.27069e-07 0)
(0.000197037 4.10954e-07 0)
(0.000196798 6.94696e-07 0)
(0.000196437 9.78162e-07 0)
(0.000195953 1.2612e-06 0)
(0.000195347 1.54366e-06 0)
(0.000194619 1.82539e-06 0)
(0.000193769 2.10623e-06 0)
(0.000192798 2.38602e-06 0)
(0.000191707 2.66458e-06 0)
(0.000190495 2.94173e-06 0)
(0.000189164 3.21729e-06 0)
(0.000187715 3.49106e-06 0)
(0.000186147 3.76285e-06 0)
(0.000184463 4.03246e-06 0)
(0.000182663 4.2997e-06 0)
(0.000180749 4.56431e-06 0)
(0.000178721 4.82603e-06 0)
(0.000176581 5.0846e-06 0)
(0.00017433 5.33975e-06 0)
(0.000171969 5.59125e-06 0)
(0.000169502 5.8388e-06 0)
(0.000166929 6.08207e-06 0)
(0.000164252 6.32074e-06 0)
(0.000161474 6.55447e-06 0)
(0.000158596 6.78291e-06 0)
(0.000155622 7.00571e-06 0)
(0.000152553 7.2225e-06 0)
(0.000149393 7.43282e-06 0)
(0.000146144 7.63621e-06 0)
(0.00014281 7.83229e-06 0)
(0.000139393 8.02066e-06 0)
(0.000135897 8.20083e-06 0)
(0.000132327 8.37223e-06 0)
(0.000128686 8.53438e-06 0)
(0.000124977 8.68679e-06 0)
(0.000121206 8.82886e-06 0)
(0.000117377 8.95999e-06 0)
(0.000113495 9.07962e-06 0)
(0.000109564 9.18717e-06 0)
(0.000105591 9.28204e-06 0)
(0.000101581 9.36358e-06 0)
(9.75399e-05 9.43104e-06 0)
(9.34737e-05 9.48369e-06 0)
(8.93889e-05 9.52092e-06 0)
(8.52923e-05 9.54212e-06 0)
(8.1191e-05 9.54647e-06 0)
(7.70923e-05 9.5331e-06 0)
(7.30039e-05 9.50134e-06 0)
(6.89337e-05 9.45051e-06 0)
(6.48899e-05 9.3798e-06 0)
(6.08813e-05 9.28835e-06 0)
(5.69166e-05 9.17541e-06 0)
(5.30049e-05 9.04023e-06 0)
(4.91557e-05 8.88205e-06 0)
(4.53786e-05 8.70012e-06 0)
(4.16838e-05 8.49369e-06 0)
(3.80815e-05 8.26211e-06 0)
(3.4582e-05 8.00475e-06 0)
(3.1196e-05 7.721e-06 0)
(2.79343e-05 7.41031e-06 0)
(2.48077e-05 7.07249e-06 0)
(2.18269e-05 6.70754e-06 0)
(1.90026e-05 6.31532e-06 0)
(1.63456e-05 5.89594e-06 0)
(1.38661e-05 5.45017e-06 0)
(1.15737e-05 4.97928e-06 0)
(9.47753e-06 4.48496e-06 0)
(7.58524e-06 3.96967e-06 0)
(5.90342e-06 3.43702e-06 0)
(4.43719e-06 2.8919e-06 0)
(3.18925e-06 2.34091e-06 0)
(2.15914e-06 1.79309e-06 0)
(1.34295e-06 1.26068e-06 0)
(7.32088e-07 7.59897e-07 0)
(3.11851e-07 3.12933e-07 0)
(6.12259e-08 -5.15466e-08 0)
(-4.76601e-08 -2.97483e-07 0)
(-5.59387e-08 -3.7838e-07 0)
(-2.06272e-08 -2.306e-07 0)
(-9.95444e-09 2.52178e-07 0)
(4.07811e-09 3.60011e-07 0)
(1.0981e-07 1.80546e-07 0)
(3.53981e-07 -2.06942e-07 0)
(7.73429e-07 -7.46128e-07 0)
(1.39524e-06 -1.3923e-06 0)
(2.23991e-06 -2.10934e-06 0)
(3.32149e-06 -2.86861e-06 0)
(4.64879e-06 -3.64869e-06 0)
(6.2254e-06 -4.43367e-06 0)
(8.05104e-06 -5.21143e-06 0)
(1.01227e-05 -5.97267e-06 0)
(1.24353e-05 -6.71017e-06 0)
(1.49819e-05 -7.41868e-06 0)
(1.77534e-05 -8.0945e-06 0)
(2.07399e-05 -8.73495e-06 0)
(2.39308e-05 -9.33826e-06 0)
(2.73148e-05 -9.90328e-06 0)
(3.08797e-05 -1.04293e-05 0)
(3.46133e-05 -1.09164e-05 0)
(3.85028e-05 -1.1365e-05 0)
(4.25357e-05 -1.17754e-05 0)
(4.67001e-05 -1.2148e-05 0)
(5.09844e-05 -1.24832e-05 0)
(5.53764e-05 -1.27821e-05 0)
(5.98636e-05 -1.30458e-05 0)
(6.44348e-05 -1.32753e-05 0)
(6.90789e-05 -1.34716e-05 0)
(7.37853e-05 -1.36354e-05 0)
(7.85431e-05 -1.37679e-05 0)
(8.33418e-05 -1.38706e-05 0)
(8.81713e-05 -1.39445e-05 0)
(9.30221e-05 -1.39906e-05 0)
(9.78848e-05 -1.401e-05 0)
(0.00010275 -1.4004e-05 0)
(0.00010761 -1.39735e-05 0)
(0.000112457 -1.39194e-05 0)
(0.000117281 -1.38428e-05 0)
(0.000122077 -1.37449e-05 0)
(0.000126835 -1.36266e-05 0)
(0.000131551 -1.34889e-05 0)
(0.000136216 -1.33327e-05 0)
(0.000140825 -1.31587e-05 0)
(0.000145371 -1.2968e-05 0)
(0.00014985 -1.27614e-05 0)
(0.000154255 -1.25398e-05 0)
(0.000158581 -1.23038e-05 0)
(0.000162823 -1.20545e-05 0)
(0.000166978 -1.17924e-05 0)
(0.000171039 -1.15182e-05 0)
(0.000175004 -1.12326e-05 0)
(0.000178869 -1.09363e-05 0)
(0.000182629 -1.06299e-05 0)
(0.000186282 -1.0314e-05 0)
(0.000189823 -9.98914e-06 0)
(0.000193251 -9.65598e-06 0)
(0.000196561 -9.31505e-06 0)
(0.000199751 -8.96683e-06 0)
(0.000202819 -8.61175e-06 0)
(0.000205763 -8.25025e-06 0)
(0.00020858 -7.8828e-06 0)
(0.000211268 -7.50987e-06 0)
(0.000213826 -7.13183e-06 0)
(0.000216251 -6.74905e-06 0)
(0.000218541 -6.36185e-06 0)
(0.000220696 -5.97063e-06 0)
(0.000222714 -5.57576e-06 0)
(0.000224593 -5.17754e-06 0)
(0.000226333 -4.7762e-06 0)
(0.000227932 -4.37202e-06 0)
(0.00022939 -3.96529e-06 0)
(0.000230705 -3.5563e-06 0)
(0.000231877 -3.14533e-06 0)
(0.000232904 -2.7326e-06 0)
(0.000233788 -2.31832e-06 0)
(0.000234526 -1.90273e-06 0)
(0.000235119 -1.48605e-06 0)
(0.000235566 -1.06851e-06 0)
(0.000235867 -6.50324e-07 0)
(0.000236022 -2.31734e-07 0)
(0.00023603 1.87045e-07 0)
(0.000235892 6.05814e-07 0)
(0.000235607 1.02437e-06 0)
(0.000235176 1.44251e-06 0)
(0.000234599 1.86e-06 0)
(0.000233876 2.27661e-06 0)
(0.000233008 2.69212e-06 0)
(0.000231995 3.1063e-06 0)
(0.000230837 3.5189e-06 0)
(0.000229536 3.92966e-06 0)
(0.000228091 4.3383e-06 0)
(0.000226504 4.74456e-06 0)
(0.000224775 5.14815e-06 0)
(0.000222906 5.54878e-06 0)
(0.000220898 5.94618e-06 0)
(0.000218752 6.34001e-06 0)
(0.00021647 6.72989e-06 0)
(0.000214052 7.11545e-06 0)
(0.000211501 7.49631e-06 0)
(0.000208817 7.87212e-06 0)
(0.000206004 8.24248e-06 0)
(0.000203063 8.60693e-06 0)
(0.000199997 8.965e-06 0)
(0.000196807 9.31623e-06 0)
(0.000193496 9.66012e-06 0)
(0.000190067 9.99615e-06 0)
(0.000186523 1.03238e-05 0)
(0.000182867 1.06424e-05 0)
(0.000179103 1.09516e-05 0)
(0.000175233 1.12504e-05 0)
(0.000171261 1.15384e-05 0)
(0.000167192 1.1815e-05 0)
(0.00016303 1.20794e-05 0)
(0.000158779 1.23308e-05 0)
(0.000154443 1.25686e-05 0)
(0.000150028 1.27919e-05 0)
(0.000145539 1.3e-05 0)
(0.000140982 1.31919e-05 0)
(0.000136361 1.33669e-05 0)
(0.000131684 1.3524e-05 0)
(0.000126957 1.36624e-05 0)
(0.000122185 1.37812e-05 0)
(0.000117377 1.38792e-05 0)
(0.00011254 1.39556e-05 0)
(0.000107681 1.40093e-05 0)
(0.000102809 1.40393e-05 0)
(9.79306e-05 1.40447e-05 0)
(9.3056e-05 1.40242e-05 0)
(8.81937e-05 1.39767e-05 0)
(8.33531e-05 1.39013e-05 0)
(7.85439e-05 1.37968e-05 0)
(7.37762e-05 1.36622e-05 0)
(6.90604e-05 1.34962e-05 0)
(6.44072e-05 1.32979e-05 0)
(5.98275e-05 1.30661e-05 0)
(5.53326e-05 1.27998e-05 0)
(5.09343e-05 1.24981e-05 0)
(4.66444e-05 1.21601e-05 0)
(4.24748e-05 1.17848e-05 0)
(3.84377e-05 1.13718e-05 0)
(3.45457e-05 1.09202e-05 0)
(3.08111e-05 1.04298e-05 0)
(2.72462e-05 9.9005e-06 0)
(2.38628e-05 9.33262e-06 0)
(2.0673e-05 8.72668e-06 0)
(1.76884e-05 8.08379e-06 0)
(1.49197e-05 7.40584e-06 0)
(1.23769e-05 6.69544e-06 0)
(1.00684e-05 5.95635e-06 0)
(8.00148e-06 5.19396e-06 0)
(6.18134e-06 4.41542e-06 0)
(4.61078e-06 3.62995e-06 0)
(3.2895e-06 2.85001e-06 0)
(2.21335e-06 2.09194e-06 0)
(1.37412e-06 1.37707e-06 0)
(7.5775e-07 7.33035e-07 0)
(3.43116e-07 1.96433e-07 0)
(1.0288e-07 -1.87682e-07 0)
(5.18911e-10 -3.62542e-07 0)
(-1.07631e-08 -2.51224e-07 0)
(9.9999e-10 2.39819e-07 0)
(6.72623e-08 2.60838e-07 0)
(2.8041e-07 -5.49272e-08 0)
(6.72843e-07 -6.17772e-07 0)
(1.27428e-06 -1.36332e-06 0)
(2.11122e-06 -2.23818e-06 0)
(3.20222e-06 -3.19992e-06 0)
(4.55986e-06 -4.21475e-06 0)
(6.19183e-06 -5.25685e-06 0)
(8.1011e-06 -6.30597e-06 0)
(1.02872e-05 -7.34649e-06 0)
(1.27472e-05 -8.36592e-06 0)
(1.54753e-05 -9.355e-06 0)
(1.84638e-05 -1.03069e-05 0)
(2.17032e-05 -1.12164e-05 0)
(2.51829e-05 -1.20795e-05 0)
(2.88911e-05 -1.28938e-05 0)
(3.28155e-05 -1.36575e-05 0)
(3.69429e-05 -1.43696e-05 0)
(4.12595e-05 -1.50301e-05 0)
(4.57515e-05 -1.56391e-05 0)
(5.04055e-05 -1.61967e-05 0)
(5.52083e-05 -1.67032e-05 0)
(6.01463e-05 -1.71596e-05 0)
(6.52058e-05 -1.75672e-05 0)
(7.03733e-05 -1.79273e-05 0)
(7.56361e-05 -1.82409e-05 0)
(8.0982e-05 -1.85092e-05 0)
(8.63985e-05 -1.87335e-05 0)
(9.18733e-05 -1.89155e-05 0)
(9.73947e-05 -1.90568e-05 0)
(0.000102951 -1.91588e-05 0)
(0.000108532 -1.92227e-05 0)
(0.000114127 -1.92504e-05 0)
(0.000119725 -1.92432e-05 0)
(0.000125317 -1.92023e-05 0)
(0.000130893 -1.91291e-05 0)
(0.000136444 -1.90252e-05 0)
(0.000141963 -1.88921e-05 0)
(0.000147439 -1.8731e-05 0)
(0.000152866 -1.8543e-05 0)
(0.000158235 -1.83296e-05 0)
(0.00016354 -1.80919e-05 0)
(0.000168774 -1.78311e-05 0)
(0.00017393 -1.75484e-05 0)
(0.000179001 -1.72449e-05 0)
(0.000183982 -1.69218e-05 0)
(0.000188868 -1.65801e-05 0)
(0.000193652 -1.62208e-05 0)
(0.00019833 -1.58447e-05 0)
(0.000202897 -1.54529e-05 0)
(0.000207348 -1.50464e-05 0)
(0.00021168 -1.46258e-05 0)
(0.000215888 -1.41921e-05 0)
(0.000219969 -1.3746e-05 0)
(0.000223918 -1.32884e-05 0)
(0.000227732 -1.282e-05 0)
(0.000231409 -1.23414e-05 0)
(0.000234945 -1.18534e-05 0)
(0.000238338 -1.13564e-05 0)
(0.000241585 -1.08512e-05 0)
(0.000244684 -1.03384e-05 0)
(0.000247632 -9.81842e-06 0)
(0.000250428 -9.29184e-06 0)
(0.000253069 -8.75916e-06 0)
(0.000255553 -8.2209e-06 0)
(0.00025788 -7.67753e-06 0)
(0.000260047 -7.12945e-06 0)
(0.000262053 -6.57703e-06 0)
(0.000263897 -6.02066e-06 0)
(0.000265578 -5.46075e-06 0)
(0.000267095 -4.8977e-06 0)