/*--------------------------------*- C++ -*----------------------------------*\
  =========                 |
  \\      /  F ield         | OpenFOAM: The Open Source CFD Toolbox
   \\    /   O peration     | Website:  https://openfoam.org
    \\  /    A nd           | Version:  7
     \\/     M anipulation  |
\*---------------------------------------------------------------------------*/
FoamFile
{
    version     2.0;
    format      ascii;
    class       volScalarField;
    location    "0.2125";
    object      p;
}
// * * * * * * * * * * * * * * * * * * * * * * * * * * * * * * * * * * * * * //

dimensions      [0 2 -2 0 0 0 0];

internalField   nonuniform List<scalar> 
12800
(
-2.44204e-06
2.36696e-05
-1.13948e-05
-0.000121281
-0.000298279
-0.000531586
-0.000809953
-0.00112247
-0.0014593
-0.00181185
-0.00217276
-0.00253576
-0.00289566
-0.00324818
-0.00358984
-0.00391783
-0.00422991
-0.00452439
-0.00480004
-0.00505598
-0.00529167
-0.00550681
-0.0057013
-0.00587525
-0.00602888
-0.00616251
-0.00627656
-0.00637148
-0.00644775
-0.00650585
-0.00654629
-0.00656954
-0.00657605
-0.00656622
-0.00654044
-0.00649905
-0.00644232
-0.0063705
-0.00628378
-0.0061823
-0.00606613
-0.0059353
-0.00578979
-0.00562955
-0.00545447
-0.00526438
-0.00505909
-0.00483833
-0.0046018
-0.00434914
-0.00407998
-0.00379388
-0.00349034
-0.00316885
-0.0028288
-0.00246956
-0.00209047
-0.0016908
-0.00126982
-0.00082672
-0.000360658
0.000129265
0.000643984
0.00118448
0.00175176
0.00234689
0.00297099
0.00362523
0.00431082
0.00502904
0.00578122
0.00656873
0.00739298
0.00825543
0.00915755
0.0101009
0.011087
0.0121175
0.013194
0.0143182
0.0154919
0.0167166
0.017994
0.019326
0.020714
0.0221599
0.0236652
0.0252314
0.0268602
0.0285528
0.0303108
0.0321352
0.0340273
0.0359879
0.0380179
0.0401178
0.0422881
0.0445288
0.0468399
0.049221
0.0516714
0.0541899
0.0567752
0.0594255
0.0621384
0.0649114
0.0677411
0.070624
0.0735559
0.0765319
0.079547
0.0825952
0.0856702
0.088765
0.0918723
0.0949841
0.0980918
0.101186
0.104259
0.107299
0.110296
0.113241
0.116122
0.118929
0.121651
0.124277
0.126797
0.129201
0.131478
0.133619
0.135616
0.13746
0.139145
0.140664
0.142011
0.143185
0.144181
0.144998
0.145638
0.146101
0.146391
0.146513
0.146474
0.146281
0.145945
0.145478
0.144892
0.144202
0.143426
0.142583
0.141693
0.14078
0.139869
0.138989
0.138174
0.137458
0.136879
0.136478
0.136294
0.136317
-2.81662e-05
-6.1842e-07
-3.68046e-05
-0.000137318
-0.000292859
-0.000496117
-0.000739034
-0.00101314
-0.00131043
-0.0016236
-0.00194625
-0.00227275
-0.00259832
-0.0029189
-0.00323115
-0.00353232
-0.00382018
-0.00409295
-0.00434929
-0.0045882
-0.00480899
-0.0050112
-0.0051946
-0.00535909
-0.00550475
-0.00563174
-0.00574033
-0.00583081
-0.00590354
-0.00595888
-0.00599719
-0.00601885
-0.00602421
-0.00601358
-0.00598726
-0.00594549
-0.0058885
-0.00581647
-0.00572954
-0.00562779
-0.00551126
-0.00537994
-0.00523377
-0.00507268
-0.00489653
-0.00470513
-0.00449827
-0.00427566
-0.004037
-0.00378193
-0.00351005
-0.00322093
-0.00291407
-0.00258893
-0.00224494
-0.00188145
-0.00149781
-0.00109331
-0.000667227
-0.000218766
0.000252905
0.000748665
0.00126943
0.00181615
0.00238981
0.00299144
0.00362212
0.00428298
0.0049752
0.00570002
0.00645872
0.00725261
0.00808303
0.00895139
0.00985909
0.0108076
0.0117984
0.0128331
0.0139131
0.0150401
0.0162157
0.0174414
0.0187189
0.0200497
0.0214353
0.0228774
0.0243774
0.0259367
0.0275568
0.0292389
0.0309843
0.0327941
0.0346691
0.0366103
0.0386183
0.0406936
0.0428364
0.0450468
0.0473245
0.0496691
0.0520797
0.0545552
0.0570941
0.0596945
0.0623542
0.0650704
0.0678399
0.0706593
0.0735242
0.0764302
0.079372
0.0823441
0.0853403
0.0883539
0.0913777
0.0944041
0.0974249
0.100432
0.103415
0.106366
0.109275
0.112132
0.114927
0.11765
0.120291
0.122839
0.125285
0.12762
0.129833
0.131916
0.133862
0.135663
0.137312
0.138804
0.140134
0.141299
0.142296
0.143126
0.143788
0.144284
0.144619
0.144796
0.144822
0.144706
0.144456
0.144085
0.143604
0.143029
0.142375
0.14166
0.140903
0.140127
0.139354
0.138609
0.137921
0.137318
0.136829
0.136483
0.136316
0.13634
1.19706e-05
4.00342e-05
2.92118e-06
-9.29499e-05
-0.000236599
-0.000421913
-0.000642428
-0.000891164
-0.00116135
-0.00144674
-0.00174167
-0.00204116
-0.00234082
-0.0026369
-0.00292622
-0.00320617
-0.00347457
-0.00372967
-0.00397008
-0.00419474
-0.00440288
-0.00459397
-0.00476765
-0.00492375
-0.0050622
-0.00518307
-0.00528651
-0.00537273
-0.00544195
-0.00549445
-0.00553051
-0.0055504
-0.00555439
-0.00554273
-0.00551564
-0.00547331
-0.0054159
-0.00534355
-0.00525633
-0.0051543
-0.00503745
-0.00490574
-0.00475909
-0.00459739
-0.0044205
-0.00422819
-0.00402024
-0.00379634
-0.00355618
-0.00329941
-0.00302562
-0.00273435
-0.00242512
-0.00209739
-0.00175056
-0.00138402
-0.000997116
-0.000589153
-0.000159407
0.0002929
0.000768589
0.00126852
0.0017936
0.00234473
0.00292289
0.00352907
0.00416433
0.00482975
0.0055265
0.00625578
0.0070188
0.00781684
0.00865121
0.00952323
0.0104343
0.0113857
0.012379
0.0134157
0.0144971
0.0156249
0.0168004
0.0180253
0.0193011
0.0206291
0.0220109
0.023448
0.0249417
0.0264934
0.0281044
0.0297758
0.0315089
0.0333045
0.0351636
0.0370869
0.039075
0.0411281
0.0432466
0.0454304
0.0476791
0.0499922
0.0523688
0.0548078
0.0573077
0.0598664
0.0624819
0.0651513
0.0678715
0.070639
0.0734498
0.0762993
0.0791824
0.0820938
0.0850274
0.0879768
0.090935
0.0938946
0.0968478
0.0997862
0.102701
0.105584
0.108426
0.111216
0.113946
0.116605
0.119184
0.121674
0.124065
0.126348
0.128515
0.130556
0.132464
0.134234
0.135857
0.13733
0.138648
0.139808
0.140808
0.141648
0.142328
0.14285
0.143219
0.143437
0.143513
0.143454
0.143269
0.14297
0.142567
0.142075
0.14151
0.140888
0.140226
0.139545
0.138866
0.138212
0.137605
0.137071
0.136633
0.136314
0.136149
0.136158
0.000127826
0.000145241
0.000101537
4.44353e-06
-0.000135168
-0.000311632
-0.000519266
-0.00075207
-0.00100419
-0.00127017
-0.00154504
-0.00182435
-0.00210416
-0.00238105
-0.00265205
-0.00291472
-0.003167
-0.00340721
-0.00363398
-0.00384626
-0.00404324
-0.00422435
-0.0043892
-0.00453751
-0.00466918
-0.00478419
-0.00488261
-0.00496457
-0.00503022
-0.00507976
-0.00511339
-0.00513133
-0.00513376
-0.00512088
-0.00509285
-0.0050498
-0.00499185
-0.00491908
-0.00483154
-0.00472924
-0.00461212
-0.00448012
-0.00433315
-0.00417107
-0.0039937
-0.00380082
-0.00359217
-0.00336743
-0.00312629
-0.00286839
-0.00259331
-0.00230059
-0.00198974
-0.00166022
-0.00131143
-0.000942766
-0.000553591
-0.00014322
0.000289071
0.000744051
0.00122253
0.00172534
0.00225337
0.0028075
0.00338869
0.0039979
0.00463616
0.00530453
0.00600415
0.00673615
0.00750175
0.00830216
0.00913865
0.0100125
0.010925
0.0118775
0.0128715
0.0139082
0.0149892
0.0161158
0.0172896
0.0185119
0.0197843
0.021108
0.0224845
0.0239152
0.0254014
0.0269443
0.0285453
0.0302054
0.0319256
0.033707
0.0355501
0.0374559
0.0394246
0.0414568
0.0435524
0.0457114
0.0479334
0.0502179
0.0525639
0.0549703
0.0574355
0.0599577
0.0625346
0.0651636
0.0678415
0.0705649
0.0733298
0.0761318
0.0789661
0.0818272
0.0847093
0.0876062
0.0905111
0.0934169
0.0963158
0.0991999
0.102061
0.10489
0.107679
0.110417
0.113096
0.115707
0.11824
0.120686
0.123035
0.12528
0.127411
0.129422
0.131304
0.13305
0.134656
0.136116
0.137427
0.138585
0.139588
0.140437
0.141132
0.141675
0.14207
0.142322
0.142436
0.142421
0.142285
0.142039
0.141694
0.141264
0.140763
0.140207
0.139612
0.138997
0.138381
0.137783
0.137224
0.136726
0.136308
0.135991
0.135803
0.135761
0.000311234
0.000305959
0.000248242
0.000144359
3.16396e-06
-0.000170142
-0.000370517
-0.000592766
-0.000831871
-0.0010831
-0.00134209
-0.00160492
-0.00186809
-0.00212852
-0.00238355
-0.00263091
-0.00286867
-0.00309526
-0.0033094
-0.00351007
-0.00369647
-0.00386801
-0.00402425
-0.00416491
-0.00428983
-0.00439895
-0.00449225
-0.00456981
-0.00463172
-0.00467812
-0.00470914
-0.00472494
-0.00472565
-0.0047114
-0.00468229
-0.00463842
-0.00457986
-0.00450664
-0.00441877
-0.00431621
-0.00419889
-0.00406671
-0.00391955
-0.00375726
-0.00357963
-0.00338642
-0.00317734
-0.00295208
-0.00271031
-0.00245166
-0.00217571
-0.001882
-0.00157002
-0.00123922
-0.00088903
-0.000518849
-0.000128044
0.00028406
0.000718184
0.00117509
0.00165556
0.00216043
0.00269054
0.00324676
0.00383002
0.00444126
0.00508149
0.00575173
0.00645308
0.00718666
0.00795363
0.00875516
0.00959247
0.0104668
0.0113794
0.0123316
0.0133248
0.0143602
0.0154392
0.0165633
0.0177337
0.018952
0.0202193
0.0215372
0.0229069
0.0243297
0.0258069
0.0273397
0.0289293
0.0305767
0.0322829
0.0340488
0.0358751
0.0377624
0.0397111
0.0417216
0.0437939
0.045928
0.0481234
0.0503795
0.0526954
0.0550701
0.0575018
0.0599889
0.0625291
0.0651197
0.0677578
0.07044
0.0731625
0.0759208
0.0787102
0.0815256
0.0843613
0.0872111
0.0900685
0.0929265
0.0957778
0.0986145
0.101429
0.104211
0.106955
0.109649
0.112286
0.114856
0.11735
0.119759
0.122075
0.124289
0.126393
0.128379
0.13024
0.131969
0.133562
0.135013
0.136319
0.137477
0.138486
0.139344
0.140053
0.140615
0.141034
0.141313
0.14146
0.141482
0.141387
0.141185
0.140888
0.140507
0.140058
0.139553
0.139009
0.138443
0.137871
0.137311
0.136781
0.136299
0.135883
0.13555
0.135316
0.135193
0.000553028
0.000515735
0.000437433
0.000321541
0.000173628
-1.63383e-06
-0.000199744
-0.000416245
-0.000646866
-0.000887556
-0.00113453
-0.00138436
-0.00163397
-0.00188064
-0.002122
-0.00235601
-0.00258092
-0.00279529
-0.00299792
-0.00318787
-0.00336438
-0.00352687
-0.0036749
-0.00380817
-0.00392651
-0.0040298
-0.00411801
-0.00419115
-0.00424926
-0.00429243
-0.00432075
-0.00433432
-0.00433322
-0.00431751
-0.00428726
-0.00424252
-0.00418333
-0.00410967
-0.00402149
-0.00391873
-0.0038013
-0.00366906
-0.00352188
-0.00335957
-0.00318191
-0.00298861
-0.0027794
-0.00255395
-0.00231192
-0.00205292
-0.00177653
-0.00148228
-0.00116966
-0.000838124
-0.000487107
-0.000116019
0.000275768
0.000688925
0.00112416
0.00158223
0.00206391
0.00256998
0.00310128
0.00365867
0.00424304
0.00485531
0.00549645
0.00616748
0.00686944
0.00760342
0.00837053
0.00917192
0.0100088
0.0108823
0.0117936
0.0127441
0.013735
0.0147676
0.0158432
0.0169632
0.0181288
0.0193414
0.0206023
0.0219128
0.0232742
0.0246876
0.0261544
0.0276757
0.0292525
0.030886
0.0325769
0.0343262
0.0361346
0.0380026
0.0399306
0.0419189
0.0439675
0.0460764
0.0482452
0.0504733
0.0527597
0.0551034
0.0575028
0.0599562
0.0624614
0.0650159
0.0676167
0.0702606
0.0729437
0.075662
0.0784107
0.0811848
0.0839789
0.0867869
0.0896025
0.0924189
0.0952288
0.0980247
0.100799
0.103543
0.106248
0.108906
0.111508
0.114045
0.116508
0.118889
0.121178
0.123368
0.125451
0.127419
0.129265
0.130983
0.132568
0.134014
0.135319
0.13648
0.137494
0.138362
0.139085
0.139664
0.140104
0.140407
0.140582
0.140634
0.140572
0.140406
0.140146
0.139805
0.139394
0.138928
0.138422
0.137889
0.137345
0.136807
0.136289
0.135807
0.135376
0.135011
0.134716
0.134491
0.000843242
0.000767369
0.000663219
0.000530713
0.000371517
0.00018975
-1.05775e-05
-0.000225703
-0.000452006
-0.000686052
-0.000924616
-0.00116474
-0.00140376
-0.00163931
-0.00186931
-0.00209198
-0.00230575
-0.00250935
-0.0027017
-0.00288194
-0.00304938
-0.00320346
-0.00334378
-0.00347006
-0.0035821
-0.00367978
-0.00376302
-0.00383181
-0.00388616
-0.00392612
-0.00395173
-0.00396304
-0.00396009
-0.0039429
-0.00391151
-0.00386592
-0.00380611
-0.00373204
-0.00364363
-0.00354077
-0.00342334
-0.00329121
-0.00314419
-0.00298207
-0.00280461
-0.0026115
-0.00240246
-0.00217716
-0.00193524
-0.00167631
-0.00139992
-0.00110561
-0.000792854
-0.000461126
-0.000109869
0.000261503
0.000653614
0.00106713
0.00150275
0.00196122
0.00244327
0.00294969
0.00348129
0.00403891
0.0046234
0.00523567
0.00587667
0.00654737
0.00724879
0.00798197
0.00874799
0.00954797
0.010383
0.0112543
0.012163
0.0131104
0.0140976
0.0151259
0.0161966
0.0173109
0.0184702
0.0196756
0.0209285
0.0222301
0.0235816
0.0249842
0.0264391
0.0279474
0.0295101
0.0311283
0.0328029
0.0345345
0.0363239
0.0381717
0.0400782
0.0420438
0.0440684
0.046152
0.0482942
0.0504945
0.052752
0.0550655
0.0574337
0.0598548
0.0623268
0.0648472
0.0674132
0.0700216
0.0726687
0.0753505
0.0780625
0.0807998
0.083557
0.0863284
0.0891077
0.0918883
0.0946632
0.097425
0.100166
0.102878
0.105553
0.108182
0.110756
0.113268
0.115708
0.118067
0.120338
0.122512
0.12458
0.126537
0.128374
0.130086
0.131667
0.133113
0.134421
0.135586
0.136609
0.137487
0.138224
0.138819
0.139277
0.139602
0.139799
0.139876
0.139841
0.139703
0.139472
0.139159
0.138776
0.138337
0.137854
0.137341
0.136812
0.136281
0.135761
0.135264
0.134806
0.134397
0.134029
0.133691
0.001172
0.00105308
0.000919053
0.000766132
0.000591808
0.000399693
0.000193339
-2.41475e-05
-0.000249739
-0.000480544
-0.000713865
-0.000947207
-0.0011783
-0.00140514
-0.00162592
-0.00183912
-0.00204339
-0.00223763
-0.0024209
-0.00259244
-0.00275164
-0.002898
-0.00303119
-0.00315093
-0.00325702
-0.00334935
-0.00342783
-0.00349242
-0.00354313
-0.00357996
-0.00360292
-0.00361202
-0.00360725
-0.00358863
-0.00355613
-0.00350974
-0.00344938
-0.00337498
-0.00328643
-0.00318359
-0.00306633
-0.00293447
-0.0027878
-0.0026261
-0.00244908
-0.00225646
-0.0020479
-0.00182309
-0.00158166
-0.00132319
-0.00104723
-0.000753318
-0.000440932
-0.00010955
0.000241375
0.000612424
0.00100422
0.00141742
0.00185271
0.00231081
0.00279245
0.00329839
0.00382941
0.00438632
0.00496998
0.00558126
0.00622106
0.00689033
0.00759007
0.00832127
0.00908499
0.00988228
0.0107142
0.011582
0.0124867
0.0134295
0.0144115
0.0154341
0.0164983
0.0176055
0.0187569
0.0199536
0.0211969
0.022488
0.0238281
0.0252183
0.0266599
0.0281537
0.029701
0.0313026
0.0329594
0.0346721
0.0364415
0.0382682
0.0401524
0.0420945
0.0440946
0.0461526
0.0482681
0.0504406
0.0526694
0.0549534
0.0572912
0.0596812
0.0621215
0.0646096
0.0671428
0.0697181
0.072332
0.0749805
0.0776593
0.0803637
0.0830884
0.0858278
0.0885758
0.091326
0.0940716
0.0968051
0.0995192
0.102206
0.104857
0.107464
0.110018
0.112512
0.114935
0.117281
0.11954
0.121703
0.123765
0.125716
0.12755
0.129262
0.130845
0.132295
0.133608
0.134782
0.135814
0.136705
0.137455
0.138066
0.138541
0.138885
0.139102
0.1392
0.139185
0.139068
0.138858
0.138566
0.138202
0.137779
0.137308
0.136804
0.136277
0.135741
0.135207
0.134685
0.134188
0.133727
0.13328
0.132826
0.00153016
0.00136528
0.00119838
0.00102204
0.00082945
0.000623773
0.000408192
0.000185202
-4.27449e-05
-0.000273263
-0.000504119
-0.000733258
-0.00095881
-0.00117909
-0.0013926
-0.00159806
-0.00179437
-0.0019806
-0.00215596
-0.00231979
-0.0024716
-0.00261098
-0.00273763
-0.00285132
-0.00295188
-0.00303919
-0.00311318
-0.0031738
-0.00322105
-0.00325489
-0.00327531
-0.0032823
-0.00327581
-0.00325584
-0.00322234
-0.00317524
-0.00311444
-0.00303982
-0.00295125
-0.00284859
-0.00273166
-0.00260027
-0.00245417
-0.00229311
-0.0021168
-0.00192493
-0.00171718
-0.0014932
-0.00125261
-0.000994997
-0.000719898
-0.000426834
-0.000115304
0.000215208
0.000565246
0.000935388
0.00132625
0.00173847
0.00217274
0.00262975
0.0031102
0.00361484
0.00414442
0.00469975
0.00528163
0.00589092
0.0065285
0.00719528
0.00789222
0.00862029
0.00938049
0.0101739
0.0110014
0.0118643
0.0127636
0.0137004
0.0146759
0.0156912
0.0167475
0.017846
0.0189879
0.0201744
0.0214065
0.0226856
0.0240127
0.025389
0.0268156
0.0282935
0.0298238
0.0314074
0.0330451
0.0347377
0.0364859
0.0382903
0.0401512
0.0420691
0.0440439
0.0460757
0.0481642
0.0503089
0.0525091
0.0547639
0.0570719
0.0594317
0.0618412
0.0642984
0.0668007
0.069345
0.071928
0.074546
0.0771947
0.0798695
0.0825655
0.085277
0.0879983
0.0907229
0.0934442
0.0961551
0.098848
0.101515
0.104149
0.10674
0.109281
0.111763
0.114177
0.116515
0.118768
0.120929
0.122989
0.124942
0.126779
0.128496
0.130085
0.131544
0.132867
0.134052
0.135097
0.136002
0.136767
0.137394
0.137886
0.138246
0.13848
0.138595
0.138597
0.138496
0.138301
0.138021
0.137668
0.137253
0.136786
0.13628
0.135747
0.135196
0.134638
0.134082
0.13354
0.133019
0.13249
0.13192
0.00190944
0.00169671
0.00149486
0.0012928
0.00107943
0.000857554
0.000630078
0.00039893
0.00016602
-6.67405e-05
-0.000297553
-0.00052477
-0.000746888
-0.000962552
-0.00117057
-0.00136992
-0.00155971
-0.0017392
-0.00190775
-0.00206487
-0.00221015
-0.00234329
-0.00246404
-0.00257222
-0.00266769
-0.00275037
-0.0028202
-0.00287714
-0.00292115
-0.0029522
-0.00297026
-0.00297529
-0.00296724
-0.00294607
-0.00291169
-0.002864
-0.00280289
-0.00272821
-0.00263979
-0.00253748
-0.00242107
-0.00229034
-0.00214502
-0.00198485
-0.0018095
-0.00161868
-0.00141205
-0.00118924
-0.000949853
-0.000693472
-0.000419635
-0.000127863
0.000182336
0.000511475
0.000860091
0.00122876
0.00161809
0.00202871
0.00246128
0.00291648
0.003395
0.00389755
0.00442486
0.00497772
0.00555691
0.00616325
0.00679761
0.00746085
0.00815389
0.00887768
0.00963319
0.0104214
0.0112433
0.0121
0.0129925
0.013922
0.0148894
0.0158961
0.0169429
0.0180313
0.0191621
0.0203367
0.0215561
0.0228216
0.0241341
0.0254949
0.026905
0.0283654
0.0298772
0.0314412
0.0330584
0.0347295
0.0364552
0.0382361
0.0400727
0.0419653
0.0439141
0.0459191
0.04798
0.0500965
0.052268
0.0544936
0.0567722
0.0591022
0.061482
0.0639094
0.066382
0.068897
0.0714512
0.0740409
0.0766621
0.0793105
0.081981
0.0846684
0.0873668
0.0900702
0.0927719
0.0954649
0.0981419
0.100795
0.103417
0.105998
0.108532
0.111008
0.113419
0.115756
0.118011
0.120175
0.12224
0.1242
0.126046
0.127773
0.129374
0.130846
0.132183
0.133383
0.134445
0.135366
0.136148
0.136791
0.137299
0.137676
0.137926
0.138055
0.138071
0.137982
0.137796
0.137523
0.137174
0.13676
0.136289
0.135774
0.135225
0.134652
0.134063
0.133467
0.132874
0.132291
0.131678
0.130995
0.00230238
0.00204069
0.00180242
0.0015729
0.00133679
0.00109661
0.000855047
0.000613517
0.000373442
0.000136283
-9.65767e-05
-0.000323861
-0.000544414
-0.000757206
-0.000961344
-0.00115605
-0.00134066
-0.00151461
-0.00167744
-0.0018288
-0.00196841
-0.00209605
-0.00221155
-0.00231478
-0.00240567
-0.00248416
-0.00255021
-0.00260378
-0.00264484
-0.00267335
-0.00268927
-0.00269255
-0.00268313
-0.00266093
-0.00262584
-0.00257774
-0.00251648
-0.0024419
-0.00235383
-0.00225205
-0.00213636
-0.0020065
-0.0018622
-0.00170315
-0.00152904
-0.00133955
-0.00113433
-0.000913008
-0.000675174
-0.000420397
-0.000148217
0.000141839
0.000450256
0.00077754
0.00112423
0.00149088
0.00187811
0.00228652
0.00271675
0.00316946
0.00364531
0.00414501
0.00466926
0.0052188
0.00579441
0.00639687
0.00702702
0.00768569
0.00837378
0.00909217
0.00984182
0.0106237
0.0114387
0.0122879
0.0131723
0.014093
0.015051
0.0160475
0.0170834
0.01816
0.0192783
0.0204394
0.0216445
0.0228947
0.024191
0.0255346
0.0269266
0.0283679
0.0298595
0.0314025
0.0329977
0.0346458
0.0363476
0.0381038
0.0399149
0.0417811
0.0437029
0.0456801
0.0477128
0.0498007
0.0519431
0.0541394
0.0563885
0.0586891
0.0610395
0.0634379
0.065882
0.068369
0.0708959
0.0734594
0.0760554
0.0786798
0.0813277
0.0839941
0.0866733
0.0893593
0.0920455
0.0947252
0.097391
0.100035
0.10265
0.105228
0.107759
0.110236
0.11265
0.114992
0.117254
0.119427
0.121504
0.123476
0.125337
0.12708
0.128698
0.130188
0.131544
0.132764
0.133844
0.134785
0.135585
0.136247
0.136773
0.137166
0.13743
0.137573
0.1376
0.137519
0.137339
0.137069
0.13672
0.136299
0.135819
0.135289
0.134718
0.134116
0.133491
0.132849
0.132201
0.131554
0.130858
0.130066
0.0027022
0.00239099
0.00211529
0.00185702
0.00159668
0.00133655
0.00107912
0.000825379
0.00057629
0.000332905
9.62185e-05
-0.000132851
-0.000353482
-0.000564962
-0.000766672
-0.000958079
-0.00113873
-0.00130826
-0.0014664
-0.00161293
-0.0017477
-0.00187058
-0.00198148
-0.00208037
-0.0021672
-0.00224196
-0.00230464
-0.00235521
-0.00239364
-0.00241991
-0.00243396
-0.00243573
-0.00242516
-0.00240214
-0.00236655
-0.00231823
-0.00225702
-0.00218274
-0.0020952
-0.00199417
-0.00187941
-0.00175064
-0.00160757
-0.00144989
-0.00127727
-0.00108939
-0.000885878
-0.000666351
-0.000430393
-0.000177566
9.25822e-05
0.00038052
0.000686726
0.0010117
0.00135598
0.00172011
0.00210468
0.0025103
0.00293758
0.00338715
0.00385965
0.00435576
0.00487617
0.00542159
0.00599276
0.00659045
0.00721544
0.00786855
0.00855064
0.00926255
0.0100052
0.0107795
0.0115864
0.0124268
0.0133018
0.0142124
0.0151596
0.0161444
0.0171679
0.0182312
0.0193353
0.0204814
0.0216706
0.0229038
0.0241823
0.0255071
0.0268793
0.0282998
0.0297698
0.03129
0.0328616
0.0344852
0.0361617
0.0378918
0.0396759
0.0415146
0.0434082
0.0453567
0.0473603
0.0494187
0.0515315
0.0536981
0.0559175
0.0581887
0.0605101
0.06288
0.0652962
0.0677562
0.0702572
0.0727959
0.0753686
0.0779711
0.0805989
0.0832471
0.0859101
0.088582
0.0912565
0.0939268
0.0965857
0.0992257
0.101839
0.104417
0.106952
0.109435
0.111857
0.11421
0.116485
0.118674
0.120768
0.122759
0.12464
0.126404
0.128045
0.129558
0.130938
0.132181
0.133284
0.134248
0.13507
0.135752
0.136297
0.136707
0.136986
0.137141
0.137178
0.137104
0.136927
0.136657
0.136302
0.135873
0.135378
0.134827
0.134229
0.133594
0.132928
0.132237
0.131532
0.13082
0.130042
0.129146
0.00310269
0.00274176
0.00242804
0.00214009
0.00185438
0.00157302
0.00129832
0.00103088
0.000771247
0.000520102
0.00027808
4.5748e-05
-0.0001764
-0.000387941
-0.000588514
-0.000777822
-0.000955641
-0.00112181
-0.00127623
-0.00141882
-0.00154954
-0.00166839
-0.00177537
-0.0018705
-0.00195382
-0.00202535
-0.00208509
-0.00213305
-0.00216922
-0.00219356
-0.00220604
-0.0022066
-0.00219513
-0.00217153
-0.00213566
-0.00208733
-0.00202638
-0.00195262
-0.00186582
-0.00176574
-0.00165212
-0.00152465
-0.00138304
-0.00122697
-0.00105609
-0.000870081
-0.000668551
-0.000451108
-0.00021733
3.32202e-05
0.000300988
0.000586433
0.00089003
0.00121228
0.00155369
0.00191483
0.00229624
0.00269853
0.00312227
0.00356808
0.00403659
0.00452842
0.00504426
0.00558478
0.0061507
0.00674275
0.00736168
0.00800828
0.00868335
0.00938773
0.0101223
0.0108879
0.0116854
0.0125159
0.0133802
0.0142793
0.0152142
0.0161859
0.0171956
0.0182441
0.0193325
0.020462
0.0216335
0.0228482
0.0241072
0.0254115
0.0267621
0.0281602
0.0296068
0.0311027
0.0326491
0.0342466
0.0358962
0.0375986
0.0393544
0.0411642
0.0430283
0.044947
0.0469204
0.0489485
0.0510309
0.0531671
0.0553565
0.0575981
0.0598904
0.0622319
0.0646206
0.0670543
0.0695302
0.0720453
0.074596
0.0771785
0.0797882
0.0824205
0.0850699
0.0877306
0.0903966
0.0930611
0.095717
0.0983568
0.100973
0.103556
0.1061
0.108594
0.11103
0.113399
0.115693
0.117903
0.120019
0.122035
0.123942
0.125734
0.127403
0.128944
0.130352
0.131623
0.132755
0.133744
0.134592
0.135298
0.135863
0.136292
0.136588
0.136755
0.136801
0.136733
0.136558
0.136284
0.135922
0.135479
0.134966
0.134391
0.133763
0.133091
0.132381
0.131639
0.130875
0.130097
0.129241
0.128244
0.0034981
0.00308752
0.00273547
0.00241722
0.00210533
0.00180173
0.00150868
0.00122635
0.000954931
0.000694758
0.000446121
0.000209256
-1.56503e-05
-0.000228445
-0.000429019
-0.00061732
-0.000793344
-0.000957125
-0.00110872
-0.0012482
-0.00137566
-0.00149119
-0.0015949
-0.00168689
-0.00176725
-0.00183603
-0.0018933
-0.00193907
-0.00197335
-0.00199613
-0.00200736
-0.00200699
-0.00199491
-0.00197098
-0.00193506
-0.00188697
-0.00182651
-0.00175348
-0.00166764
-0.00156871
-0.00145643
-0.00133048
-0.00119054
-0.0010363
-0.000867406
-0.000683501
-0.000484203
-0.000269106
-3.77854e-05
0.00021019
0.000475259
0.000757871
0.0010585
0.00137763
0.00171578
0.00207348
0.00245127
0.00284971
0.00326939
0.00371087
0.00417476
0.00466168
0.00517226
0.00570716
0.00626705
0.00685264
0.00746465
0.00810382
0.00877093
0.00946676
0.0101921
0.0109479
0.011735
0.0125542
0.0134065
0.0142928
0.0152142
0.0161714
0.0171657
0.0181979
0.0192691
0.0203803
0.0215327
0.0227272
0.023965
0.0252471
0.0265746
0.0279485
0.0293699
0.0308399
0.0323593
0.0339291
0.0355502
0.0372233
0.0389493
0.0407286
0.0425619
0.0444494
0.0463915
0.0483881
0.0504392
0.0525443
0.054703
0.0569143
0.0591773
0.0614903
0.0638517
0.0662593
0.0687108
0.0712031
0.0737329
0.0762966
0.0788899
0.0815081
0.0841461
0.0867983
0.0894585
0.0921203
0.0947765
0.0974198
0.100042
0.102636
0.105192
0.107702
0.110157
0.112548
0.114866
0.117102
0.119248
0.121294
0.123233
0.125057
0.12676
0.128335
0.129777
0.131081
0.132245
0.133265
0.134142
0.134874
0.135464
0.135914
0.136227
0.136409
0.136464
0.136401
0.136227
0.135949
0.135577
0.135119
0.134585
0.133983
0.133322
0.13261
0.131854
0.131059
0.130237
0.129394
0.12846
0.127369
0.00388313
0.00342313
0.00303265
0.00268374
0.00234507
0.00201851
0.00170625
0.00140811
0.00112391
0.000853665
0.000597339
0.000354863
0.000126143
-8.89357e-05
-0.00029052
-0.000478794
-0.000653965
-0.000816245
-0.000965854
-0.00110301
-0.00122794
-0.00134084
-0.00144193
-0.00153137
-0.00160931
-0.00167586
-0.00173111
-0.00177512
-0.00180791
-0.00182949
-0.00183983
-0.00183884
-0.00182642
-0.00180243
-0.00176672
-0.00171909
-0.00165936
-0.00158728
-0.00150259
-0.00140502
-0.00129428
-0.00117004
-0.00103199
-0.000879786
-0.000713077
-0.000531495
-0.000334648
-0.000122127
0.000106489
0.000351625
0.000613712
0.000893193
0.00119053
0.00150621
0.00184072
0.00219459
0.00256833
0.00296248
0.0033776
0.00381423
0.00427296
0.00475437
0.00525905
0.00578765
0.0063408
0.00691916
0.00752343
0.00815431
0.00881254
0.00949886
0.0102141
0.010959
0.0117344
0.0125412
0.0133803
0.0142526
0.015159
0.0161004
0.0170778
0.0180923
0.0191447
0.0202362
0.0213677
0.0225404
0.0237553
0.0250135
0.0263161
0.0276642
0.0290588
0.0305009
0.0319917
0.0335321
0.0351229
0.0367652
0.0384597
0.0402071
0.042008
0.043863
0.0457723
0.0477363
0.0497548
0.0518279
0.0539549
0.0561354
0.0583683
0.0606525
0.0629864
0.065368
0.0677952
0.0702651
0.0727748
0.0753207
0.0778988
0.0805045
0.0831329
0.0857785
0.0884355
0.0910972
0.0937568
0.0964069
0.0990397
0.101647
0.10422
0.106751
0.10923
0.111647
0.113995
0.116262
0.118442
0.120524
0.122501
0.124364
0.126106
0.127721
0.129202
0.130545
0.131746
0.132802
0.133712
0.134475
0.135092
0.135566
0.135899
0.136096
0.136163
0.136106
0.135932
0.135649
0.135266
0.134792
0.134235
0.133605
0.132909
0.132156
0.131352
0.130504
0.129623
0.128716
0.127707
0.126525
0.00425282
0.00374374
0.00331487
0.00293509
0.00256928
0.00221925
0.00188714
0.00157247
0.0012747
0.000993538
0.000728639
0.000479656
0.000246228
2.7971e-05
-0.000175514
-0.000364632
-0.000539787
-0.00070137
-0.00084976
-0.000985329
-0.00110842
-0.00121937
-0.00131845
-0.00140591
-0.00148197
-0.00154679
-0.00160049
-0.00164317
-0.00167488
-0.00169564
-0.0017054
-0.00170411
-0.00169164
-0.00166787
-0.00163262
-0.0015857
-0.0015269
-0.00145598
-0.00137265
-0.00127663
-0.0011676
-0.00104526
-0.00090927
-0.000759281
-0.000594936
-0.000415857
-0.000221646
-1.18951e-05
0.000213809
0.000455882
0.000714748
0.000990844
0.00128462
0.00159655
0.00192712
0.00227681
0.00264613
0.00303559
0.00344571
0.00387703
0.00433009
0.00480544
0.00530366
0.00582533
0.00637106
0.00694149
0.00753727
0.00815904
0.00880752
0.00948342
0.0101875
0.0109205
0.0116832
0.0124765
0.0133012
0.0141582
0.0150484
0.0159726
0.0169318
0.017927
0.0189592
0.0200294
0.0211385
0.0222878
0.0234782
0.0247108
0.0259868
0.0273073
0.0286733
0.030086
0.0315463
0.0330555
0.0346144
0.0362241
0.0378854
0.0395992
0.0413662
0.043187
0.0450622
0.0469921
0.0489769
0.0510166
0.053111
0.0552597
0.0574618
0.0597165
0.0620224
0.0643777
0.0667805
0.0692283
0.0717182
0.0742469
0.0768105
0.0794049
0.0820251
0.0846659
0.0873214
0.0899854
0.092651
0.0953108
0.0979571
0.100582
0.103176
0.105731
0.108238
0.110687
0.113069
0.115374
0.117593
0.119717
0.121737
0.123644
0.125432
0.127092
0.128618
0.130005
0.131249
0.132346
0.133294
0.134092
0.134741
0.135242
0.135599
0.135814
0.135894
0.135844
0.135671
0.135384
0.13499
0.134499
0.133919
0.133259
0.132527
0.131732
0.13088
0.129978
0.129037
0.128067
0.126985
0.125716
0.00460248
0.00404473
0.00357762
0.0031669
0.00277374
0.00239991
0.00204751
0.00171575
0.00140379
0.00111103
0.000836856
0.000580634
0.000341737
0.000119527
-8.66333e-05
-0.000277357
-0.000453239
-0.000614847
-0.000762723
-0.000897383
-0.0010193
-0.0011289
-0.00122656
-0.00131261
-0.0013873
-0.00145087
-0.00150349
-0.00154527
-0.00157629
-0.00159659
-0.00160612
-0.00160483
-0.00159261
-0.00156931
-0.00153476
-0.00148878
-0.00143113
-0.00136154
-0.00127974
-0.00118543
-0.00107829
-0.000957999
-0.000824214
-0.000676586
-0.000514745
-0.000338307
-0.000146877
5.99506e-05
0.000282578
0.000521414
0.000776872
0.00104938
0.00133938
0.00164733
0.00197368
0.00231891
0.0026835
0.00306793
0.00347269
0.00389828
0.00434523
0.00481404
0.00530527
0.00581945
0.00635717
0.00691902
0.00750559
0.00811751
0.00875544
0.00942006
0.0101121
0.0108322
0.0115812
0.0123599
0.0131691
0.0140097
0.0148823
0.0157881
0.0167278
0.0177023
0.0187128
0.0197601
0.0208454
0.0219696
0.0231339
0.0243393
0.025587
0.0268782
0.0282139
0.0295952
0.0310234
0.0324996
0.0340248
0.0356001
0.0372266
0.038905
0.0406364
0.0424215
0.0442609
0.0461553
0.0481049
0.0501099
0.0521704
0.0542861
0.0564565
0.0586809
0.060958
0.0632865
0.0656646
0.06809
0.0705601
0.0730719
0.0756216
0.0782053
0.0808183
0.0834555
0.0861113
0.0887794
0.0914531
0.0941251
0.0967878
0.0994329
0.102052
0.104635
0.107174
0.109659
0.11208
0.114427
0.116691
0.118862
0.120931
0.122889
0.124728
0.126439
0.128016
0.129454
0.130746
0.131889
0.132881
0.133719
0.134404
0.134937
0.13532
0.135557
0.135652
0.135612
0.135442
0.135152
0.134748
0.13424
0.133636
0.132946
0.132178
0.13134
0.13044
0.129484
0.128484
0.127452
0.126298
0.124945
0.00492764
0.00432168
0.00381655
0.00337494
0.00295435
0.0025565
0.0021835
0.00183426
0.00150765
0.00120278
0.000918758
0.000654697
0.000409696
0.000182874
-2.66218e-05
-0.000219611
-0.000396874
-0.000559156
-0.00070716
-0.000841536
-0.000962879
-0.00107171
-0.0011685
-0.00125365
-0.00132747
-0.00139027
-0.00144223
-0.00148353
-0.00151424
-0.00153443
-0.00154405
-0.00154305
-0.00153134
-0.00150876
-0.00147516
-0.00143031
-0.00137398
-0.0013059
-0.00122578
-0.00113332
-0.00102819
-0.000910061
-0.000778595
-0.000633427
-0.000474184
-0.000300483
-0.000111931
9.18677e-05
0.000311307
0.000546786
0.000798707
0.00106749
0.00135355
0.00165734
0.00197928
0.00231983
0.00267943
0.00305855
0.00345763
0.00387717
0.00431763
0.00477949
0.00526327
0.00576948
0.00629864
0.00685131
0.00742804
0.00802943
0.00865608
0.00930863
0.00998774
0.0106941