/*--------------------------------*- C++ -*----------------------------------*\
  =========                 |
  \\      /  F ield         | OpenFOAM: The Open Source CFD Toolbox
   \\    /   O peration     | Website:  https://openfoam.org
    \\  /    A nd           | Version:  7
     \\/     M anipulation  |
\*---------------------------------------------------------------------------*/
FoamFile
{
    version     2.0;
    format      ascii;
    class       surfaceScalarField;
    location    "0.2125";
    object      phi;
}
// * * * * * * * * * * * * * * * * * * * * * * * * * * * * * * * * * * * * * //

dimensions      [0 3 -1 0 0 0 0];

internalField   nonuniform List<scalar> 
25360
(
5.62965e-11
-5.31431e-11
2.0009e-10
-1.43786e-10
3.68327e-10
-1.68249e-10
5.11726e-10
-1.43396e-10
6.01662e-10
-8.99447e-11
6.22171e-10
-2.05068e-11
5.6524e-10
5.69259e-11
4.2802e-10
1.37218e-10
2.1094e-10
2.17078e-10
-8.34582e-11
2.94401e-10
-4.51315e-10
3.67856e-10
-8.87951e-10
4.3663e-10
-1.38821e-09
5.00262e-10
-1.94676e-09
5.58544e-10
-2.5582e-09
6.11439e-10
-3.21723e-09
6.59036e-10
-3.91874e-09
7.01513e-10
-4.65785e-09
7.39112e-10
-5.42998e-09
7.72127e-10
-6.23086e-09
8.00877e-10
-7.05655e-09
8.25692e-10
-7.90347e-09
8.4691e-10
-8.76834e-09
8.6487e-10
-9.64825e-09
8.79906e-10
-1.05406e-08
8.92336e-10
-1.1443e-08
9.02465e-10
-1.23536e-08
9.10585e-10
-1.32706e-08
9.16967e-10
-1.41924e-08
9.21862e-10
-1.5118e-08
9.25509e-10
-1.60461e-08
9.28129e-10
-1.6976e-08
9.29919e-10
-1.79071e-08
9.31057e-10
-1.88388e-08
9.31705e-10
-1.97708e-08
9.3201e-10
-2.07029e-08
9.32101e-10
-2.1635e-08
9.32091e-10
-2.25671e-08
9.32083e-10
-2.34992e-08
9.32171e-10
-2.44317e-08
9.32436e-10
-2.53646e-08
9.32947e-10
-2.62984e-08
9.33761e-10
-2.72333e-08
9.34931e-10
-2.81698e-08
9.36503e-10
-2.91083e-08
9.38516e-10
-3.00493e-08
9.41005e-10
-3.09933e-08
9.43995e-10
-3.19408e-08
9.4751e-10
-3.28924e-08
9.51569e-10
-3.38486e-08
9.56185e-10
-3.481e-08
9.61371e-10
-3.57771e-08
9.67133e-10
-3.67506e-08
9.73476e-10
-3.7731e-08
9.80399e-10
-3.87189e-08
9.87897e-10
-3.97148e-08
9.95963e-10
-4.07194e-08
1.00459e-09
-4.17332e-08
1.01376e-09
-4.27566e-08
1.02345e-09
-4.37903e-08
1.03365e-09
-4.48346e-08
1.04433e-09
-4.589e-08
1.05545e-09
-4.6957e-08
1.067e-09
-4.8036e-08
1.07892e-09
-4.91271e-08
1.09117e-09
-5.02308e-08
1.1037e-09
-5.13473e-08
1.11646e-09
-5.24767e-08
1.12939e-09
-5.36191e-08
1.14241e-09
-5.47745e-08
1.15546e-09
-5.5943e-08
1.16844e-09
-5.71243e-08
1.18127e-09
-5.83181e-08
1.19385e-09
-5.95242e-08
1.20608e-09
-6.0742e-08
1.21784e-09
-6.1971e-08
1.22901e-09
-6.32105e-08
1.23946e-09
-6.44596e-08
1.24906e-09
-6.57172e-08
1.25765e-09
-6.69823e-08
1.26507e-09
-6.82534e-08
1.27116e-09
-6.95292e-08
1.27574e-09
-7.08078e-08
1.27863e-09
-7.20874e-08
1.27962e-09
-7.3366e-08
1.27852e-09
-7.46411e-08
1.27511e-09
-7.59102e-08
1.26918e-09
-7.71707e-08
1.26048e-09
-7.84195e-08
1.2488e-09
-7.96534e-08
1.23387e-09
-8.08689e-08
1.21547e-09
-8.20622e-08
1.19334e-09
-8.32294e-08
1.16722e-09
-8.43663e-08
1.13686e-09
-8.54683e-08
1.10201e-09
-8.65307e-08
1.06241e-09
-8.75485e-08
1.01782e-09
-8.85165e-08
9.68008e-10
-8.94293e-08
9.1274e-10
-9.02811e-08
8.51804e-10
-9.10661e-08
7.85006e-10
-9.17782e-08
7.12169e-10
-9.24114e-08
6.33142e-10
-9.29592e-08
5.47803e-10
-9.34153e-08
4.56064e-10
-9.37731e-08
3.57871e-10
-9.40263e-08
2.53214e-10
-9.41685e-08
1.4213e-10
-9.41932e-08
2.47048e-11
-9.40943e-08
-9.89199e-11
-9.38657e-08
-2.28537e-10
-9.35018e-08
-3.63882e-10
-9.29972e-08
-5.0462e-10
-9.23469e-08
-6.50344e-10
-9.15463e-08
-8.00572e-10
-9.05916e-08
-9.54742e-10
-8.94794e-08
-1.11222e-09
-8.82071e-08
-1.27228e-09
-8.6773e-08
-1.43412e-09
-8.51761e-08
-1.59687e-09
-8.34165e-08
-1.75957e-09
-8.14953e-08
-1.92119e-09
-7.94147e-08
-2.08063e-09
-7.7178e-08
-2.23674e-09
-7.47897e-08
-2.38829e-09
-7.22556e-08
-2.53404e-09
-6.95829e-08
-2.67269e-09
-6.678e-08
-2.80294e-09
-6.38565e-08
-2.92347e-09
-6.08236e-08
-3.03296e-09
-5.76934e-08
-3.13012e-09
-5.44797e-08
-3.21371e-09
-5.11972e-08
-3.28253e-09
-4.78618e-08
-3.33545e-09
-4.44903e-08
-3.37146e-09
-4.11007e-08
-3.38961e-09
-3.77116e-08
-3.38911e-09
-3.43423e-08
-3.36926e-09
-3.10128e-08
-3.32953e-09
-2.77433e-08
-3.26955e-09
-2.45542e-08
-3.18909e-09
-2.14661e-08
-3.08809e-09
-1.84994e-08
-2.96667e-09
-1.56743e-08
-2.82511e-09
-1.30104e-08
-2.66388e-09
-1.05268e-08
-2.4836e-09
-8.24174e-09
-2.28509e-09
-6.17238e-09
-2.06936e-09
-4.33475e-09
-1.83763e-09
-2.74331e-09
-1.59144e-09
-1.41063e-09
-1.33267e-09
-3.46814e-10
-1.06381e-09
4.41451e-10
-7.88261e-10
9.52388e-10
-5.10932e-10
1.19167e-09
-2.39275e-10
1.17715e-09
1.45209e-11
9.46662e-10
2.30486e-10
5.72076e-10
3.74585e-10
1.86015e-10
3.86061e-10
1.86016e-10
1.46349e-10
-1.99481e-10
4.14713e-10
-4.12169e-10
6.92255e-10
-4.45786e-10
8.94717e-10
-3.45859e-10
9.62403e-10
-1.57622e-10
8.56841e-10
8.50584e-11
5.55742e-10
3.58031e-10
4.85506e-11
6.44408e-10
-6.66895e-10
9.32524e-10
-1.58692e-09
1.21442e-09
-2.7038e-09
1.48473e-09
-4.00711e-09
1.73994e-09
-5.48472e-09
1.97787e-09
-7.1235e-09
2.19732e-09
-8.90986e-09
2.3978e-09
-1.08302e-08
2.57934e-09
-1.2871e-08
2.74238e-09
-1.50195e-08
2.88761e-09
-1.72633e-08
3.01594e-09
-1.95909e-08
3.12842e-09
-2.19914e-08
3.22618e-09
-2.44549e-08
3.31039e-09
-2.69722e-08
3.38224e-09
-2.95352e-08
3.44292e-09
-3.21365e-08
3.49359e-09
-3.47694e-08
3.53537e-09
-3.74282e-08
3.56932e-09
-4.01077e-08
3.59646e-09
-4.28035e-08
3.61774e-09
-4.55121e-08
3.63405e-09
-4.82301e-08
3.64619e-09
-5.09551e-08
3.65493e-09
-5.3685e-08
3.66094e-09
-5.64181e-08
3.66485e-09
-5.91534e-08
3.66724e-09
-6.18899e-08
3.6686e-09
-6.46272e-08
3.66939e-09
-6.73651e-08
3.67001e-09
-7.01038e-08
3.67083e-09
-7.28435e-08
3.67215e-09
-7.55848e-08
3.67425e-09
-7.83284e-08
3.67739e-09
-8.10753e-08
3.68177e-09
-8.38263e-08
3.68757e-09
-8.65828e-08
3.69495e-09
-8.93458e-08
3.70405e-09
-9.21168e-08
3.71498e-09
-9.48971e-08
3.72784e-09
-9.76883e-08
3.7427e-09
-1.00492e-07
3.75961e-09
-1.03309e-07
3.77863e-09
-1.06142e-07
3.79979e-09
-1.08991e-07
3.8231e-09
-1.11859e-07
3.84856e-09
-1.14748e-07
3.87615e-09
-1.17658e-07
3.90584e-09
-1.20591e-07
3.93759e-09
-1.23548e-07
3.97136e-09
-1.26532e-07
4.00706e-09
-1.29543e-07
4.0446e-09
-1.32582e-07
4.08389e-09
-1.35652e-07
4.1248e-09
-1.38752e-07
4.1672e-09
-1.41884e-07
4.21091e-09
-1.45048e-07
4.25578e-09
-1.48246e-07
4.30159e-09
-1.51478e-07
4.34812e-09
-1.54744e-07
4.39512e-09
-1.58044e-07
4.44233e-09
-1.61378e-07
4.48945e-09
-1.64745e-07
4.53614e-09
-1.68146e-07
4.58206e-09
-1.71579e-07
4.62681e-09
-1.75043e-07
4.67e-09
-1.78536e-07
4.71118e-09
-1.82057e-07
4.74987e-09
-1.85603e-07
4.78557e-09
-1.89172e-07
4.81773e-09
-1.9276e-07
4.84577e-09
-1.96364e-07
4.8691e-09
-1.9998e-07
4.88705e-09
-2.03603e-07
4.89896e-09
-2.07229e-07
4.90411e-09
-2.10851e-07
4.90176e-09
-2.14463e-07
4.89113e-09
-2.1806e-07
4.87141e-09
-2.21632e-07
4.84176e-09
-2.25173e-07
4.80133e-09
-2.28674e-07
4.74923e-09
-2.32124e-07
4.68455e-09
-2.35515e-07
4.60637e-09
-2.38836e-07
4.51376e-09
-2.42074e-07
4.40579e-09
-2.45219e-07
4.28151e-09
-2.48257e-07
4.13999e-09
-2.51175e-07
3.98034e-09
-2.53959e-07
3.80164e-09
-2.56594e-07
3.60306e-09
-2.59065e-07
3.38378e-09
-2.61356e-07
3.14304e-09
-2.63451e-07
2.88018e-09
-2.65333e-07
2.59459e-09
-2.66986e-07
2.28576e-09
-2.68392e-07
1.95331e-09
-2.69532e-07
1.59697e-09
-2.70391e-07
1.21662e-09
-2.7095e-07
8.12293e-10
-2.71192e-07
3.84208e-10
-2.711e-07
-6.72303e-11
-2.70658e-07
-5.41409e-10
-2.69849e-07
-1.03749e-09
-2.68658e-07
-1.55439e-09
-2.67072e-07
-2.09078e-09
-2.65078e-07
-2.64507e-09
-2.62663e-07
-3.2154e-09
-2.59818e-07
-3.7996e-09
-2.56535e-07
-4.39523e-09
-2.52808e-07
-4.99956e-09
-2.48632e-07
-5.60958e-09
-2.44007e-07
-6.22197e-09
-2.38934e-07
-6.83316e-09
-2.33415e-07
-7.4393e-09
-2.2746e-07
-8.03632e-09
-2.21077e-07
-8.61992e-09
-2.14279e-07
-9.18563e-09
-2.07084e-07
-9.72881e-09
-1.99512e-07
-1.02447e-08
-1.91587e-07
-1.07285e-08
-1.83335e-07
-1.11754e-08
-1.74787e-07
-1.15807e-08
-1.65978e-07
-1.19395e-08
-1.56944e-07
-1.22473e-08
-1.47727e-07
-1.24998e-08
-1.38369e-07
-1.2693e-08
-1.28918e-07
-1.2823e-08
-1.19421e-07
-1.28865e-08
-1.0993e-07
-1.28806e-08
-1.00496e-07
-1.28028e-08
-9.11744e-08
-1.26512e-08
-8.20194e-08
-1.24246e-08
-7.30864e-08
-1.21221e-08
-6.44308e-08
-1.17436e-08
-5.61077e-08
-1.12898e-08
-4.8171e-08
-1.07618e-08
-4.06734e-08
-1.01615e-08
-3.36654e-08
-9.49161e-09
-2.7195e-08
-8.75548e-09
-2.13069e-08
-7.95742e-09
-1.60418e-08
-7.10272e-09
-1.14353e-08
-6.19796e-09
-7.51656e-09
-5.25144e-09
-4.30652e-09
-4.27387e-09
-1.81523e-09
-3.27956e-09
-3.78486e-11
-2.28832e-09
1.05151e-09
-1.32863e-09
1.50822e-09
-4.42183e-10
1.43058e-09
3.08134e-10
9.77014e-10
8.28148e-10
3.84568e-10
9.78508e-10
5.70586e-10
1.70258e-10
-3.6975e-10
4.49747e-10
-6.9166e-10
6.95078e-10
-6.9113e-10
8.04193e-10
-4.54972e-10
7.02582e-10
-5.60163e-11
3.39487e-10
4.4815e-10
-3.16546e-10
1.01406e-09
-1.28191e-09
1.60978e-09
-2.56158e-09
2.2122e-09
-4.15202e-09
2.80485e-09
-6.04352e-09
3.37623e-09
-8.22205e-09
3.91848e-09
-1.06707e-08
4.42648e-09
-1.33705e-08
4.89719e-09
-1.63019e-08
5.32913e-09
-1.94445e-08
5.72197e-09
-2.27784e-08
6.07625e-09
-2.62839e-08
6.39319e-09
-2.99425e-08
6.67447e-09
-3.37361e-08
6.92209e-09
-3.76483e-08
7.13829e-09
-4.16633e-08
7.32544e-09
-4.5767e-08
7.48596e-09
-4.99464e-08
7.6223e-09
-5.41897e-08
7.73687e-09
-5.84863e-08
7.83201e-09
-6.2827e-08
7.90998e-09
-6.72034e-08
7.97291e-09
-7.16085e-08
8.02284e-09
-7.60361e-08
8.06165e-09
-8.04811e-08
8.0911e-09
-8.49389e-08
8.11282e-09
-8.94063e-08
8.12829e-09
-9.38803e-08
8.13886e-09
-9.83588e-08
8.14578e-09
-1.0284e-07
8.15015e-09
-1.07324e-07
8.15297e-09
-1.11809e-07
8.15514e-09
-1.16296e-07
8.15746e-09
-1.20784e-07
8.16062e-09
-1.25275e-07
8.16525e-09
-1.2977e-07
8.1719e-09
-1.34269e-07
8.18105e-09
-1.38775e-07
8.19311e-09
-1.43288e-07
8.20843e-09
-1.47811e-07
8.22732e-09
-1.52346e-07
8.25005e-09
-1.56895e-07
8.27682e-09
-1.6146e-07
8.30781e-09
-1.66044e-07
8.34315e-09
-1.70648e-07
8.38295e-09
-1.75276e-07
8.42727e-09
-1.79929e-07
8.47614e-09
-1.8461e-07
8.52957e-09
-1.89321e-07
8.58752e-09
-1.94065e-07
8.64993e-09
-1.98844e-07
8.7167e-09
-2.03661e-07
8.7877e-09
-2.08516e-07
8.86277e-09
-2.13414e-07
8.94172e-09
-2.18354e-07
9.02429e-09
-2.23339e-07
9.11022e-09
-2.28371e-07
9.1992e-09
-2.33451e-07
9.29085e-09
-2.3858e-07
9.38479e-09
-2.43759e-07
9.48055e-09
-2.48989e-07
9.57764e-09
-2.54269e-07
9.67551e-09
-2.596e-07
9.77353e-09
-2.64982e-07
9.87106e-09
-2.70413e-07
9.96736e-09
-2.75893e-07
1.00617e-08
-2.81419e-07
1.01531e-08
-2.8699e-07
1.02408e-08
-2.92602e-07
1.03237e-08
-2.98253e-07
1.04008e-08
-3.03939e-07
1.0471e-08
-3.09654e-07
1.05331e-08
-3.15394e-07
1.05859e-08
-3.21153e-07
1.06279e-08
-3.26924e-07
1.06579e-08
-3.32699e-07
1.06743e-08
-3.38471e-07
1.06755e-08
-3.44229e-07
1.066e-08
-3.49964e-07
1.06261e-08
-3.55665e-07
1.0572e-08
-3.61319e-07
1.04959e-08
-3.66913e-07
1.03961e-08
-3.72435e-07
1.02705e-08
-3.77867e-07
1.01172e-08
-3.83195e-07
9.93439e-09
-3.88402e-07
9.71996e-09
-3.93468e-07
9.47197e-09
-3.98375e-07
9.18843e-09
-4.03102e-07
8.86739e-09
-4.07629e-07
8.50696e-09
-4.11932e-07
8.10527e-09
-4.1599e-07
7.66058e-09
-4.19777e-07
7.17122e-09
-4.2327e-07
6.63565e-09
-4.26442e-07
6.05252e-09
-4.29268e-07
5.42063e-09
-4.31722e-07
4.73901e-09
-4.33775e-07
4.00692e-09
-4.35402e-07
3.22393e-09
-4.36575e-07
2.38988e-09
-4.37268e-07
1.50499e-09
-4.37454e-07
5.69826e-10
-4.37106e-07
-4.14604e-10
-4.36201e-07
-1.44686e-09
-4.34713e-07
-2.52503e-09
-4.32621e-07
-3.64669e-09
-4.29903e-07
-4.80888e-09
-4.2654e-07
-6.00809e-09
-4.22515e-07
-7.24022e-09
-4.17814e-07
-8.50058e-09
-4.12425e-07
-9.78389e-09
-4.06341e-07
-1.10843e-08
-3.99555e-07
-1.23952e-08
-3.92067e-07
-1.37096e-08
-3.83881e-07
-1.50199e-08
-3.75002e-07
-1.63178e-08
-3.65444e-07
-1.75948e-08
-3.55222e-07
-1.88417e-08
-3.44359e-07
-2.0049e-08
-3.32881e-07
-2.12069e-08
-3.2082e-07
-2.23055e-08
-3.08214e-07
-2.33347e-08
-2.95105e-07
-2.42842e-08
-2.81541e-07
-2.5144e-08
-2.67577e-07
-2.59043e-08
-2.53268e-07
-2.65555e-08
-2.3868e-07
-2.70885e-08
-2.23878e-07
-2.74947e-08
-2.08935e-07
-2.77665e-08
-1.93924e-07
-2.78967e-08
-1.78926e-07
-2.78792e-08
-1.6402e-07
-2.7709e-08
-1.49289e-07
-2.73822e-08
-1.34817e-07
-2.6896e-08
-1.2069e-07
-2.6249e-08
-1.06993e-07
-2.54413e-08
-9.38083e-08
-2.44741e-08
-8.12198e-08
-2.33503e-08
-6.93071e-08
-2.20742e-08
-5.81467e-08
-2.0652e-08
-4.78107e-08
-1.90915e-08
-3.83657e-08
-1.74025e-08
-2.98712e-08
-1.55972e-08
-2.23784e-08
-1.36908e-08
-1.59274e-08
-1.17024e-08
-1.05452e-08
-9.65613e-09
-6.24097e-09
-7.58376e-09
-3.00163e-09
-5.52766e-09
-7.84372e-10
-3.5459e-09
4.93018e-10
-1.71957e-09
9.64453e-10
-1.63303e-10
8.30196e-10
9.62406e-10
3.7298e-10
1.43572e-09
9.43568e-10
1.46441e-10
-5.16186e-10
3.51699e-10
-8.96919e-10
4.61085e-10
-8.00514e-10
3.64529e-10
-3.58409e-10
-1.84933e-11
3.27008e-10
-7.44099e-10
1.17375e-09
-1.84814e-09
2.11811e-09
-3.35013e-09
3.11177e-09
-5.25661e-09
4.11867e-09
-7.5641e-09
5.11234e-09
-1.02616e-08
6.0737e-09
-1.33324e-08
6.98933e-09
-1.67562e-08
7.85023e-09
-2.05098e-08
8.65078e-09
-2.45686e-08
9.38795e-09
-2.89073e-08
1.00607e-08
-3.35005e-08
1.06695e-08
-3.83233e-08
1.1216e-08
-4.33515e-08
1.17026e-08
-4.8562e-08
1.21326e-08
-5.3933e-08
1.25094e-08
-5.94444e-08
1.28368e-08
-6.50772e-08
1.31188e-08
-7.08142e-08
1.33593e-08
-7.66398e-08
1.35625e-08
-8.25399e-08
1.37321e-08
-8.85018e-08
1.38719e-08
-9.45144e-08
1.39855e-08
-1.00568e-07
1.40765e-08
-1.06654e-07
1.41478e-08
-1.12766e-07
1.42026e-08
-1.18897e-07
1.42437e-08
-1.25042e-07
1.42735e-08
-1.31197e-07
1.42943e-08
-1.3736e-07
1.43085e-08
-1.43528e-07
1.43177e-08
-1.49698e-07
1.43239e-08
-1.55872e-07
1.43285e-08
-1.62047e-07
1.4333e-08
-1.68225e-07
1.43386e-08
-1.74406e-07
1.43463e-08
-1.80592e-07
1.43571e-08
-1.86783e-07
1.4372e-08
-1.92981e-07
1.43916e-08
-1.99189e-07
1.44165e-08
-2.05409e-07
1.44474e-08
-2.11644e-07
1.44846e-08
-2.17895e-07
1.45285e-08
-2.24167e-07
1.45796e-08
-2.30462e-07
1.46379e-08
-2.36783e-07
1.47037e-08
-2.43133e-07
1.47771e-08
-2.49515e-07
1.48582e-08
-2.55932e-07
1.49469e-08
-2.62388e-07
1.50432e-08
-2.68885e-07
1.5147e-08
-2.75426e-07
1.52581e-08
-2.82015e-07
1.53764e-08
-2.88653e-07
1.55013e-08
-2.95344e-07
1.56328e-08
-3.0209e-07
1.57702e-08
-3.08893e-07
1.59131e-08
-3.15755e-07
1.6061e-08
-3.22677e-07
1.62132e-08
-3.29662e-07
1.6369e-08
-3.36709e-07
1.65276e-08
-3.43819e-07
1.66881e-08
-3.50993e-07
1.68495e-08
-3.5823e-07
1.70108e-08
-3.6553e-07
1.71707e-08
-3.72891e-07
1.73281e-08
-3.8031e-07
1.74815e-08
-3.87787e-07
1.76294e-08
-3.95316e-07
1.77703e-08
-4.02895e-07
1.79025e-08
-4.10518e-07
1.8024e-08
-4.1818e-07
1.81331e-08
-4.25875e-07
1.82275e-08
-4.33594e-07
1.83052e-08
-4.4133e-07
1.83638e-08
-4.49073e-07
1.84009e-08
-4.56813e-07
1.8414e-08
-4.64538e-07
1.84004e-08
-4.72235e-07
1.83572e-08
-4.7989e-07
1.82817e-08
-4.87489e-07
1.81709e-08
-4.95015e-07
1.80217e-08
-5.0245e-07
1.78309e-08
-5.09775e-07
1.75953e-08
-5.16969e-07
1.73117e-08
-5.24012e-07
1.69768e-08
-5.30879e-07
1.65871e-08
-5.37546e-07
1.61395e-08
-5.43988e-07
1.56306e-08
-5.50178e-07
1.5057e-08
-5.56087e-07
1.44158e-08
-5.61686e-07
1.37038e-08
-5.66943e-07
1.29182e-08
-5.71828e-07
1.20562e-08
-5.76308e-07
1.11153e-08
-5.80349e-07
1.00934e-08
-5.83917e-07
8.98867e-09
-5.86977e-07
7.7995e-09
-5.89495e-07
6.52487e-09
-5.91435e-07
5.16418e-09
-5.92763e-07
3.71737e-09
-5.93443e-07
2.18498e-09
-5.93441e-07
5.68186e-10
-5.92725e-07
-1.13114e-09
-5.91261e-07
-2.91038e-09
-5.8902e-07
-4.76608e-09
-5.85973e-07
-6.69397e-09
-5.82093e-07
-8.68887e-09
-5.77356e-07
-1.07447e-08
-5.71742e-07
-1.28543e-08
-5.65233e-07
-1.50097e-08
-5.57815e-07
-1.72018e-08
-5.49479e-07
-1.94205e-08
-5.40219e-07
-2.16549e-08
-5.30036e-07
-2.38929e-08
-5.18935e-07
-2.61215e-08
-5.06925e-07
-2.8327e-08
-4.94025e-07
-3.04949e-08
-4.80257e-07
-3.26097e-08
-4.65651e-07
-3.46555e-08
-4.50242e-07
-3.66161e-08
-4.34073e-07
-3.84745e-08
-4.17193e-07
-4.0214e-08
-3.9966e-07
-4.18175e-08
-3.81536e-07
-4.32681e-08
-3.6289e-07
-4.45496e-08
-3.438e-07
-4.56459e-08
-3.24346e-07
-4.6542e-08
-3.04618e-07
-4.72235e-08
-2.84707e-07
-4.76776e-08
-2.64711e-07
-4.78925e-08
-2.44732e-07
-4.78582e-08
-2.24874e-07
-4.75662e-08
-2.05246e-07
-4.70102e-08
-1.85957e-07
-4.61858e-08
-1.67115e-07
-4.50906e-08
-1.48831e-07
-4.3725e-08
-1.31214e-07
-4.20915e-08
-1.14369e-07
-4.01952e-08
-9.83989e-08
-3.80441e-08
-8.34021e-08
-3.56489e-08
-6.947e-08
-3.30236e-08
-5.66867e-08
-3.01858e-08
-4.51266e-08
-2.71572e-08
-3.48526e-08
-2.39649e-08
-2.59128e-08
-2.06421e-08
-1.8338e-08
-1.7231e-08
-1.21365e-08
-1.37853e-08
-7.28933e-09
-1.03748e-08
-3.74314e-09
-7.09208e-09
-1.4015e-09
-4.06122e-09
-1.1463e-10
-1.45017e-09
3.32462e-10
5.15317e-10
2.34048e-10
1.53414e-09
1.17762e-09
9.35723e-11
-6.09767e-10
1.62749e-10
-9.6609e-10
5.74539e-11
-6.95223e-10
-3.31479e-10
3.05273e-11
-1.08432e-09
1.07984e-09
-2.25752e-09
2.34695e-09
-3.88756e-09
3.74815e-09
-5.99444e-09
5.21864e-09
-8.58473e-09
6.70895e-09
-1.16543e-08
8.18191e-09
-1.51907e-08
9.61007e-09
-1.91751e-08
1.09738e-08
-2.35843e-08
1.22594e-08
-2.83917e-08
1.34582e-08
-3.3569e-08
1.45652e-08
-3.90866e-08
1.55783e-08
-4.49147e-08
1.64976e-08
-5.1024e-08
1.73252e-08
-5.73858e-08
1.80644e-08
-6.39725e-08
1.87194e-08
-7.07582e-08
1.92951e-08
-7.77183e-08
1.97969e-08
-8.48302e-08
2.02306e-08
-9.20728e-08
2.06019e-08
-9.94269e-08
2.09166e-08
-1.06875e-07
2.11805e-08
-1.14403e-07
2.13991e-08
-1.21995e-07
2.15777e-08
-1.2964e-07
2.17214e-08
-1.37327e-07
2.1835e-08
-1.45047e-07
2.1923e-08
-1.52793e-07
2.19895e-08
-1.60558e-07
2.20383e-08
-1.68337e-07
2.20731e-08
-1.76125e-07
2.20969e-08
-1.8392e-07
2.21128e-08
-1.9172e-07
2.21234e-08
-1.99522e-07
2.21311e-08
-2.07327e-07
2.2138e-08
-2.15135e-07
2.2146e-08
-2.22945e-07
2.21568e-08
-2.3076e-07
2.21719e-08
-2.38581e-07
2.21926e-08
-2.46409e-07
2.22201e-08
-2.54248e-07
2.22554e-08
-2.621e-07
2.22992e-08
-2.69968e-07
2.23524e-08
-2.77854e-07
2.24154e-08
-2.85764e-07
2.24889e-08
-2.93699e-07
2.25732e-08
-3.01664e-07
2.26685e-08
-3.09662e-07
2.27751e-08
-3.17697e-07
2.2893e-08
-3.25772e-07
2.30222e-08
-3.33892e-07
2.31627e-08
-3.42059e-07
2.33143e-08
-3.50277e-07
2.34766e-08
-3.5855e-07
2.36494e-08
-3.66881e-07
2.38322e-08
-3.75273e-07
2.40243e-08
-3.83728e-07
2.42252e-08
-3.92249e-07
2.4434e-08
-4.00837e-07
2.46499e-08
-4.09496e-07
2.48719e-08
-4.18226e-07
2.50989e-08
-4.27028e-07
2.53296e-08
-4.35902e-07
2.55626e-08
-4.44849e-07
2.57964e-08
-4.53868e-07
2.60294e-08
-4.62957e-07
2.62597e-08
-4.72114e-07
2.64855e-08
-4.81337e-07
2.67045e-08
-4.90623e-07
2.69145e-08
-4.99965e-07
2.7113e-08
-5.0936e-07
2.72975e-08
-5.18801e-07
2.74651e-08
-5.28281e-07
2.76128e-08
-5.37791e-07
2.77376e-08
-5.47322e-07
2.7836e-08
-5.56863e-07
2.79046e-08
-5.66401e-07
2.79397e-08
-5.75925e-07
2.79374e-08
-5.85418e-07
2.78938e-08
-5.94866e-07
2.78046e-08
-6.04249e-07
2.76655e-08
-6.13551e-07
2.74721e-08
-6.22749e-07
2.72197e-08
-6.31821e-07
2.69036e-08
-6.40745e-07
2.65191e-08
-6.49495e-07
2.60612e-08
-6.58043e-07
2.5525e-08
-6.66361e-07
2.49057e-08
-6.7442e-07
2.41983e-08
-6.82187e-07
2.33979e-08
-6.8963e-07
2.24998e-08
-6.96714e-07
2.14993e-08
-7.03402e-07
2.03922e-08
-7.09658e-07
1.9174e-08
-7.15443e-07
1.78411e-08
-7.20717e-07
1.63898e-08
-7.25441e-07
1.48171e-08
-7.29573e-07
1.31204e-08
-7.33071e-07
1.12976e-08
-7.35893e-07
9.34748e-09
-7.37998e-07
7.26928e-09
-7.39344e-07
5.0632e-09
-7.39889e-07
2.73028e-09
-7.39594e-07
2.72522e-10
-7.38418e-07
-2.30701e-09
-7.36324e-07
-5.00416e-09
-7.33277e-07
-7.81354e-09
-7.29242e-07
-1.07285e-08
-7.2419e-07
-1.37412e-08
-7.18092e-07
-1.68423e-08
-7.10925e-07
-2.0021e-08
-7.0267e-07
-2.32651e-08
-6.93311e-07
-2.65611e-08
-6.82837e-07
-2.98939e-08
-6.71245e-07
-3.3247e-08
-6.58536e-07
-3.66024e-08
-6.44716e-07
-3.99409e-08
-6.29801e-07
-4.3242e-08
-6.13812e-07
-4.64841e-08
-5.96777e-07
-4.96445e-08
-5.78733e-07
-5.26996e-08
-5.59724e-07
-5.56252e-08
-5.39802e-07
-5.83966e-08
-5.19027e-07
-6.09889e-08
-4.97468e-07
-6.3377e-08
-4.75199e-07
-6.55363e-08
-4.52307e-07
-6.74424e-08
-4.2888e-07
-6.90721e-08
-4.05019e-07
-7.0403e-08
-3.80829e-07
-7.14143e-08
-3.56419e-07
-7.20869e-08
-3.31908e-07
-7.24036e-08
-3.07417e-07
-7.23497e-08
-2.8307e-07
-7.1913e-08
-2.58996e-07
-7.1084e-08
-2.35326e-07
-6.98565e-08
-2.12189e-07
-6.82275e-08
-1.89716e-07
-6.61974e-08
-1.68037e-07
-6.37704e-08
-1.47278e-07
-6.09548e-08
-1.27559e-07
-5.77627e-08
-1.08997e-07
-5.42109e-08
-9.16996e-08
-5.03212e-08
-7.57648e-08
-4.61206e-08
-6.12793e-08
-4.16427e-08
-4.83154e-08
-3.69287e-08
-3.69282e-08
-3.20293e-08
-2.7152e-08
-2.70073e-08
-1.89958e-08
-2.19414e-08
-1.24388e-08
-1.69318e-08
-7.42387e-09
-1.2107e-08
-3.85102e-09
-7.63406e-09
-1.56928e-09
-3.73191e-09
-3.68385e-10
-6.85569e-10
3.12878e-11
1.13447e-09
1.2089e-09
2.33055e-11
-6.33069e-10
-8.64531e-11
-8.5633e-10
-4.64543e-10
-3.17138e-10
-1.21212e-09
7.78098e-10
-2.40413e-09
2.27187e-09
-4.09345e-09
4.03628e-09
-6.31411e-09
5.9688e-09
-9.08425e-09
7.98878e-09
-1.24088e-08
1.00335e-08
-1.62821e-08
1.20552e-08
-2.06897e-08
1.40176e-08
-2.56105e-08
1.58946e-08
-3.10188e-08
1.76677e-08
-3.6885e-08
1.93244e-08
-4.31774e-08
2.08577e-08
-4.98632e-08
2.2264e-08
-5.69088e-08
2.35432e-08
-6.4281e-08
2.46975e-08
-7.19476e-08
2.57309e-08
-7.9877e-08
2.66488e-08
-8.80398e-08
2.74578e-08
-9.64076e-08
2.81648e-08
-1.04954e-07
2.87774e-08
-1.13656e-07
2.93035e-08
-1.2249e-07
2.97508e-08
-1.31437e-07
3.0127e-08
-1.40477e-07
3.04398e-08
-1.49596e-07
3.06964e-08
-1.58778e-07
3.09037e-08
-1.68012e-07
3.10684e-08
-1.77285e-07
3.11966e-08
-1.8659e-07
3.12941e-08
-1.95918e-07
3.13661e-08
-2.05262e-07
3.14177e-08
-2.14619e-07
3.14533e-08
-2.23983e-07
3.1477e-08
-2.33352e-07
3.14926e-08
-2.42724e-07
3.15033e-08
-2.52099e-07
3.15123e-08
-2.61475e-07
3.15221e-08
-2.70853e-07
3.15353e-08
-2.80235e-07
3.15538e-08
-2.89622e-07
3.15797e-08
-2.99017e-07
3.16145e-08
-3.08421e-07
3.16596e-08
-3.17838e-07
3.17163e-08
-3.27271e-07
3.17855e-08
-3.36724e-07
3.18682e-08
-3.462e-07
3.19651e-08
-3.55703e-07
3.20766e-08
-3.65238e-07
3.22032e-08
-3.74808e-07
3.23452e-08
-3.84418e-07
3.25027e-08
-3.94071e-07
3.26756e-08
-4.03773e-07
3.28639e-08
-4.13526e-07
3.30673e-08
-4.23334e-07
3.32853e-08
-4.33202e-07
3.35175e-08
-4.43133e-07
3.37632e-08
-4.53131e-07
3.40216e-08
-4.63197e-07
3.42916e-08
-4.73335e-07
3.45723e-08
-4.83548e-07
3.48623e-08
-4.93836e-07
3.51601e-08
-5.04201e-07
3.54643e-08
-5.14645e-07
3.5773e-08
-5.25166e-07
3.60842e-08
-5.35766e-07
3.63957e-08
-5.46442e-07
3.67053e-08
-5.57192e-07
3.70103e-08
-5.68015e-07
3.7308e-08
-5.78905e-07
3.75952e-08
-5.8986e-07
3.78689e-08
-6.00872e-07
3.81256e-08
-6.11936e-07
3.83615e-08
-6.23044e-07
3.85727e-08
-6.34186e-07
3.8755e-08
-6.45353e-07
3.8904e-08
-6.56532e-07
3.90151e-08
-6.67711e-07
3.90834e-08
-6.78875e-07
3.91036e-08
-6.90008e-07
3.90704e-08
-7.01092e-07
3.89783e-08
-7.12109e-07
3.88214e-08
-7.23037e-07
3.85938e-08
-7.33854e-07
3.82891e-08
-7.44536e-07
3.79011e-08
-7.55055e-07
3.74233e-08
-7.65385e-07
3.6849e-08
-7.75496e-07
3.61717e-08
-7.85355e-07
3.53845e-08
-7.9493e-07
3.44807e-08
-8.04186e-07
3.34537e-08
-8.13085e-07
3.22969e-08
-8.21589e-07
3.10038e-08
-8.29657e-07
2.95682e-08
-8.37249e-07
2.79842e-08
-8.44322e-07
2.62462e-08
-8.5083e-07
2.43491e-08
-8.56728e-07
2.22882e-08
-8.61971e-07
2.00596e-08
-8.6651e-07
1.766e-08
-8.70299e-07
1.50868e-08
-8.7329e-07
1.23384e-08
-8.75435e-07
9.41435e-09
-8.76687e-07
6.31509e-09
-8.76999e-07
3.04239e-09
-8.76326e-07
-4.00662e-10
-8.74624e-07
-4.00955e-09
-8.71849e-07
-7.77823e-09
-8.67964e-07
-1.1699e-08
-8.6293e-07
-1.57625e-08
-8.56714e-07
-1.99575e-08
-8.49285e-07
-2.42711e-08
-8.40618e-07
-2.86881e-08
-8.30691e-07
-3.31918e-08
-8.19489e-07
-3.77632e-08
-8.07002e-07
-4.23815e-08
-7.93224e-07
-4.70241e-08
-7.78161e-07
-5.16662e-08
-7.6182e-07
-5.62814e-08
-7.4422e-07
-6.08417e-08
-7.25387e-07
-6.53175e-08
-7.05354e-07
-6.96777e-08
-6.84163e-07
-7.38902e-08
-6.61866e-07
-7.79221e-08
-6.38523e-07
-8.17395e-08
-6.14204e-07
-8.53086e-08
-5.88985e-07
-8.85953e-08
-5.62956e-07
-9.15659e-08
-5.36211e-07
-9.41876e-08
-5.08854e-07
-9.64285e-08
-4.80999e-07
-9.82584e-08
-4.52764e-07
-9.9649e-08
-4.24277e-07
-1.00574e-07
-3.9567e-07
-1.01011e-07
-3.67081e-07
-1.00939e-07
-3.38652e-07
-1.00341e-07
-3.1053e-07
-9.92063e-08
-2.82862e-07
-9.75248e-08
-2.55796e-07
-9.52933e-08
-2.29481e-07
-9.25125e-08
-2.04063e-07
-8.91887e-08
-1.79684e-07
-8.53334e-08
-1.56482e-07
-8.09643e-08
-1.34588e-07
-7.61049e-08
-1.14124e-07
-7.07859e-08
-9.51986e-08
-6.50456e-08
-7.79103e-08
-5.8931e-08
-6.23396e-08
-5.24994e-08
-4.85481e-08
-4.58208e-08
-3.65748e-08
-3.89805e-08
-2.64322e-08
-3.20841e-08
-1.81016e-08
-2.52624e-08
-1.15289e-08
-1.86797e-08
-6.61903e-09
-1.25439e-08
-3.23117e-09
-7.11979e-09
-1.1737e-09
-2.74303e-09
-1.99718e-10
1.60485e-10
1.00918e-09
-5.72933e-11
-5.75779e-10
-3.74748e-10
-5.3887e-10
-1.06732e-09
3.7543e-10
-2.22317e-09
1.93395e-09
-3.90803e-09
3.95673e-09
-6.168e-09
6.29624e-09
-9.03206e-09
8.83285e-09
-1.25145e-08
1.14712e-08
-1.6617e-08
1.41361e-08
-2.13312e-08
1.67693e-08
-2.664e-08
1.93264e-08
-3.25199e-08
2.17745e-08
-3.89423e-08
2.409e-08
-4.58748e-08
2.6257e-08
-5.32829e-08
2.82658e-08
-6.11306e-08
3.01116e-08
-6.93811e-08
3.17938e-08
-7.79982e-08
3.33145e-08
-8.6946e-08
3.46788e-08
-9.61902e-08
3.5893e-08
-1.05698e-07
3.69653e-08
-1.15437e-07
3.79044e-08
-1.2538e-07
3.87201e-08
-1.35499e-07
3.94221e-08
-1.45768e-07
4.00204e-08
-1.56166e-07
4.0525e-08
-1.66672e-07
4.09456e-08
-1.77267e-07
4.12915e-08
-1.87935e-07
4.15719e-08
-1.98662e-07
4.17953e-08
-2.09435e-07
4.19697e-08
-2.20244e-07
4.21027e-08
-2.31079e-07
4.22012e-08
-2.41933e-07
4.22718e-08
-2.528e-07
4.23203e-08
-2.63675e-07
4.23523e-08
-2.74555e-07
4.23725e-08
-2.85437e-07
4.23855e-08
-2.9632e-07
4.23954e-08
-3.07204e-07
4.24056e-08
-3.18088e-07
4.24194e-08
-3.28974e-07
4.24396e-08
-3.39863e-07
4.24687e-08
-3.50757e-07
4.25091e-08
-3.6166e-07
4.25624e-08
-3.72574e-07
4.26305e-08
-3.83503e-07
4.27146e-08
-3.94451e-07
4.2816e-08
-4.05422e-07
4.29355e-08
-4.16419e-07
4.3074e-08
-4.27448e-07
4.3232e-08
-4.38512e-07
4.34098e-08
-4.49617e-07
4.36075e-08
-4.60767e-07
4.38253e-08
-4.71966e-07
4.40629e-08
-4.83218e-07
4.43199e-08
-4.94529e-07
4.45957e-08
-5.05901e-07
4.48898e-08
-5.17339e-07
4.52011e-08
-5.28846e-07
4.55285e-08
-5.40425e-07
4.58708e-08
-5.52079e-07
4.62263e-08
-5.6381e-07
4.65935e-08
-5.75621e-07
4.69704e-08
-5.87511e-07
4.73547e-08
-5.99482e-07
4.77441e-08
-6.11534e-07
4.81359e-08
-6.23665e-07
4.85272e-08
-6.35875e-07
4.89148e-08
-6.4816e-07
4.92953e-08
-6.60517e-07
4.96649e-08
-6.72941e-07
5.00196e-08
-6.85427e-07
5.03551e-08
-6.97969e-07
5.06668e-08
-7.10557e-07
5.09497e-08
-7.23183e-07
5.11986e-08
-7.35836e-07
5.1408e-08
-7.48504e-07
5.15719e-08
-7.61173e-07
5.16842e-08
-7.73828e-07
5.17385e-08
-7.86452e-07
5.17279e-08
-7.99027e-07
5.16454e-08
-8.11532e-07
5.14836e-08
-8.23946e-07
5.12348e-08
-8.36243e-07
5.08912e-08
-8.48399e-07
5.04448e-08
-8.60385e-07
4.98871e-08
-8.72172e-07
4.92098e-08
-8.83727e-07
4.84043e-08
-8.95017e-07
4.74619e-08
-9.06007e-07
4.63739e-08
-9.16657e-07
4.51316e-08
-9.2693e-07
4.37265e-08
-9.36783e-07
4.21501e-08
-9.46174e-07
4.03941e-08
-9.55056e-07
3.84507e-08
-9.63385e-07
3.63124e-08
-9.7111e-07
3.3972e-08
-9.78185e-07
3.14232e-08
-9.84557e-07
2.86603e-08
-9.90175e-07
2.56784e-08
-9.94989e-07
2.24733e-08
-9.98944e-07
1.90424e-08
-1.00199e-06
1.53838e-08
-1.00407e-06
1.14971e-08
-1.00514e-06
7.38338e-09
-1.00514e-06
3.04536e-09
-1.00403e-06
-1.51262e-09
-1.00176e-06
-6.2843e-09
-9.98274e-07
-1.12615e-08
-9.93539e-07
-1.64338e-08
-9.87513e-07
-2.17887e-08
-9.80159e-07
-2.73114e-08
-9.71446e-07
-3.29846e-08
-9.61345e-07
-3.87887e-08
-9.49835e-07
-4.47015e-08
-9.369e-07
-5.06983e-08
-9.2253e-07
-5.6752e-08
-9.06721e-07
-6.2833e-08
-8.89478e-07
-6.89092e-08
-8.70813e-07
-7.49465e-08
-8.50746e-07
-8.09084e-08
-8.29307e-07
-8.67566e-08
-8.06534e-07
-9.2451e-08
-7.82474e-07
-9.79502e-08
-7.57184e-07
-1.03211e-07
-7.30732e-07
-1.08191e-07
-7.03194e-07
-1.12846e-07
-6.74658e-07
-1.17132e-07
-6.45218e-07
-1.21005e-07
-6.14982e-07
-1.24424e-07
-5.84063e-07
-1.27347e-07
-5.52587e-07
-1.29735e-07
-5.20684e-07
-1.31552e-07
-4.88495e-07
-1.32763e-07
-4.56165e-07
-1.33341e-07
-4.23847e-07
-1.33257e-07
-3.91696e-07
-1.32491e-07
-3.59875e-07
-1.31028e-07
-3.28545e-07
-1.28855e-07
-2.9787e-07
-1.25968e-07
-2.68013e-07
-1.2237e-07
-2.39134e-07
-1.18067e-07
-2.11392e-07
-1.13076e-07
-1.84937e-07
-1.07419e-07
-1.59913e-07
-1.01129e-07
-1.36453e-07
-9.42459e-08
-1.14679e-07
-8.68198e-08
-9.46968e-08
-7.89127e-08
-7.65969e-08
-7.05994e-08
-6.04477e-08
-6.19699e-08
-4.62947e-08
-5.31335e-08
-3.41565e-08
-4.42223e-08
-2.4021e-08
-3.53979e-08
-1.58425e-08
-2.68582e-08
-9.53802e-09
-1.88484e-08
-4.98503e-09
-1.16728e-08
-2.01997e-09
-5.70809e-09
-4.38711e-10
-1.42077e-09
5.70473e-10
-1.43799e-10
-4.31982e-10
-6.87764e-10
5.09804e-12
-1.72402e-09
1.41169e-09
-3.32459e-09
3.53453e-09
-5.54311e-09
6.17524e-09
-8.41641e-09
9.16954e-09
-1.19663e-08
1.23828e-08
-1.62014e-08
1.57063e-08
-2.11189e-08
1.90536e-08
-2.67063e-08
2.23567e-08
-3.29433e-08
2.55635e-08
-3.98032e-08
2.86344e-08
-4.72545e-08
3.15413e-08
-5.5262e-08
3.42645e-08
-6.37883e-08
3.6792e-08
-7.27943e-08
3.91177e-08
-8.22406e-08
4.12401e-08
-9.20879e-08
4.31619e-08
-1.02298e-07
4.48885e-08
-1.12832e-07
4.64278e-08
-1.23657e-07
4.77894e-08
-1.34736e-07
4.8984e-08
-1.46039e-07
5.00233e-08
-1.57537e-07
5.09194e-08
-1.69201e-07
5.16845e-08
-1.81007e-07
5.23309e-08
-1.92932e-07
5.28707e-08
-2.04956e-07
5.33155e-08
-2.17061e-07
5.36767e-08
-2.2923e-07
5.39648e-08
-2.4145e-07
5.41899e-08
-2.53709e-07
5.43617e-08
-2.65997e-07
5.44888e-08
-2.78305e-07
5.45794e-08
-2.90625e-07
5.4641e-08
-3.02953e-07
5.46805e-08
-3.15285e-07
5.47042e-08
-3.27617e-07
5.47176e-08
-3.39948e-07
5.47261e-08
-3.52276e-07
5.47341e-08
-3.64603e-07
5.47457e-08
-3.76928e-07
5.47646e-08
-3.89253e-07
5.47941e-08
-4.01581e-07
5.48369e-08
-4.13914e-07
5.48956e-08
-4.26256e-07
5.49722e-08
-4.3861e-07
5.50685e-08
-4.5098e-07
5.51861e-08
-4.63371e-07
5.53261e-08
-4.75786e-07
5.54895e-08
-4.88231e-07
5.56771e-08
-5.00711e-07
5.58892e-08
-5.13229e-07
5.61261e-08