/*--------------------------------*- C++ -*----------------------------------*\
  =========                 |
  \\      /  F ield         | OpenFOAM: The Open Source CFD Toolbox
   \\    /   O peration     | Website:  https://openfoam.org
    \\  /    A nd           | Version:  7
     \\/     M anipulation  |
\*---------------------------------------------------------------------------*/
FoamFile
{
    version     2.0;
    format      ascii;
    class       volVectorField;
    location    "0.2125";
    object      U;
}
// * * * * * * * * * * * * * * * * * * * * * * * * * * * * * * * * * * * * * //

dimensions      [0 1 -1 0 0 0 0];

internalField   nonuniform List<vector> 
12800
(
(3.72649e-06 -3.31874e-06 0)
(1.92915e-05 -9.92974e-06 0)
(4.55746e-05 -1.21825e-05 0)
(7.18017e-05 -1.11069e-05 0)
(9.12763e-05 -8.23283e-06 0)
(0.000100553 -4.46854e-06 0)
(9.78606e-05 -3.29097e-07 0)
(8.24017e-05 3.8877e-06 0)
(5.40286e-05 8.00795e-06 0)
(1.30124e-05 1.19317e-05 0)
(-4.0109e-05 1.56024e-05 0)
(-0.000104637 1.89915e-05 0)
(-0.000179774 2.20882e-05 0)
(-0.000264672 2.48926e-05 0)
(-0.000358466 2.74101e-05 0)
(-0.000460296 2.96502e-05 0)
(-0.000569325 3.16262e-05 0)
(-0.000684751 3.33551e-05 0)
(-0.000805816 3.4856e-05 0)
(-0.000931812 3.61473e-05 0)
(-0.00106208 3.72471e-05 0)
(-0.00119602 3.81739e-05 0)
(-0.00133308 3.89455e-05 0)
(-0.00147277 3.95798e-05 0)
(-0.00161465 4.00939e-05 0)
(-0.00175832 4.05029e-05 0)
(-0.00190343 4.08204e-05 0)
(-0.0020497 4.10597e-05 0)
(-0.00219686 4.12334e-05 0)
(-0.00234469 4.13534e-05 0)
(-0.00249302 4.14301e-05 0)
(-0.0026417 4.14727e-05 0)
(-0.0027906 4.14894e-05 0)
(-0.00293964 4.1488e-05 0)
(-0.00308875 4.14756e-05 0)
(-0.00323788 4.1458e-05 0)
(-0.00338702 4.14398e-05 0)
(-0.00353616 4.14255e-05 0)
(-0.00368529 4.14192e-05 0)
(-0.00383445 4.14248e-05 0)
(-0.00398368 4.14452e-05 0)
(-0.004133 4.14827e-05 0)
(-0.00428248 4.15394e-05 0)
(-0.00443218 4.16173e-05 0)
(-0.00458217 4.17184e-05 0)
(-0.00473251 4.18442e-05 0)
(-0.00488329 4.19954e-05 0)
(-0.00503459 4.21726e-05 0)
(-0.0051865 4.23767e-05 0)
(-0.0053391 4.26085e-05 0)
(-0.00549248 4.28686e-05 0)
(-0.00564674 4.31574e-05 0)
(-0.00580196 4.34749e-05 0)
(-0.00595825 4.38209e-05 0)
(-0.00611569 4.41953e-05 0)
(-0.00627438 4.45977e-05 0)
(-0.0064344 4.50281e-05 0)
(-0.00659585 4.54858e-05 0)
(-0.00675881 4.59696e-05 0)
(-0.00692336 4.64783e-05 0)
(-0.00708958 4.70113e-05 0)
(-0.00725755 4.75676e-05 0)
(-0.00742733 4.81462e-05 0)
(-0.00759899 4.87451e-05 0)
(-0.00777258 4.9362e-05 0)
(-0.00794817 4.99946e-05 0)
(-0.00812577 5.06407e-05 0)
(-0.00830544 5.1298e-05 0)
(-0.00848718 5.19639e-05 0)
(-0.00867101 5.26347e-05 0)
(-0.00885693 5.33064e-05 0)
(-0.00904492 5.39748e-05 0)
(-0.00923494 5.46357e-05 0)
(-0.00942695 5.52849e-05 0)
(-0.00962089 5.59174e-05 0)
(-0.00981666 5.65274e-05 0)
(-0.0100142 5.71091e-05 0)
(-0.0102133 5.76557e-05 0)
(-0.0104139 5.81608e-05 0)
(-0.0106157 5.86171e-05 0)
(-0.0108187 5.9017e-05 0)
(-0.0110225 5.93521e-05 0)
(-0.0112269 5.96135e-05 0)
(-0.0114317 5.97921e-05 0)
(-0.0116364 5.98782e-05 0)
(-0.0118408 5.9862e-05 0)
(-0.0120444 5.97328e-05 0)
(-0.0122469 5.94797e-05 0)
(-0.0124478 5.90916e-05 0)
(-0.0126465 5.85565e-05 0)
(-0.0128426 5.78623e-05 0)
(-0.0130355 5.69965e-05 0)
(-0.0132245 5.59469e-05 0)
(-0.013409 5.47008e-05 0)
(-0.0135883 5.32456e-05 0)
(-0.0137616 5.15683e-05 0)
(-0.0139282 4.96561e-05 0)
(-0.0140873 4.74967e-05 0)
(-0.014238 4.50784e-05 0)
(-0.0143794 4.239e-05 0)
(-0.0145105 3.94208e-05 0)
(-0.0146305 3.61609e-05 0)
(-0.0147384 3.26017e-05 0)
(-0.0148331 2.87358e-05 0)
(-0.0149137 2.45575e-05 0)
(-0.014979 2.00628e-05 0)
(-0.0150282 1.52493e-05 0)
(-0.01506 1.01169e-05 0)
(-0.0150736 4.66828e-06 0)
(-0.0150679 -1.09117e-06 0)
(-0.0150419 -7.15336e-06 0)
(-0.0149947 -1.35071e-05 0)
(-0.0149254 -2.01379e-05 0)
(-0.0148332 -2.70275e-05 0)
(-0.0147173 -3.4154e-05 0)
(-0.014577 -4.14912e-05 0)
(-0.0144117 -4.90091e-05 0)
(-0.0142211 -5.66736e-05 0)
(-0.0140046 -6.44468e-05 0)
(-0.0137621 -7.2286e-05 0)
(-0.0134936 -8.01449e-05 0)
(-0.013199 -8.7973e-05 0)
(-0.0128788 -9.57165e-05 0)
(-0.0125332 -0.000103318 0)
(-0.012163 -0.000110718 0)
(-0.011769 -0.000117853 0)
(-0.0113522 -0.00012466 0)
(-0.0109138 -0.000131071 0)
(-0.0104552 -0.000137021 0)
(-0.00997829 -0.000142445 0)
(-0.00948475 -0.000147275 0)
(-0.00897671 -0.00015145 0)
(-0.00845643 -0.000154909 0)
(-0.00792637 -0.000157593 0)
(-0.00738916 -0.000159451 0)
(-0.00684758 -0.000160435 0)
(-0.00630457 -0.000160503 0)
(-0.00576316 -0.00015962 0)
(-0.0052265 -0.000157758 0)
(-0.00469781 -0.000154896 0)
(-0.00418034 -0.000151022 0)
(-0.0036774 -0.000146129 0)
(-0.00319226 -0.000140222 0)
(-0.00272817 -0.000133311 0)
(-0.00228833 -0.000125413 0)
(-0.00187584 -0.000116553 0)
(-0.00149369 -0.000106763 0)
(-0.00114473 -9.60799e-05 0)
(-0.000831616 -8.45501e-05 0)
(-0.000556813 -7.22263e-05 0)
(-0.000322499 -5.91739e-05 0)
(-0.000130519 -4.54807e-05 0)
(1.77371e-05 -3.12755e-05 0)
(0.000121517 -1.67635e-05 0)
(0.000181017 -2.2987e-06 0)
(0.00019793 1.14501e-05 0)
(0.000176267 2.32599e-05 0)
(0.000124174 3.07503e-05 0)
(5.95567e-05 2.94644e-05 0)
(1.36209e-05 1.36404e-05 0)
(1.02812e-05 -1.89316e-05 0)
(4.30719e-05 -4.25064e-05 0)
(8.96766e-05 -4.81847e-05 0)
(0.000131115 -4.03613e-05 0)
(0.000154623 -2.40675e-05 0)
(0.000152717 -2.82246e-06 0)
(0.000120811 2.10112e-05 0)
(5.64008e-05 4.58648e-05 0)
(-4.14298e-05 7.07013e-05 0)
(-0.000172478 9.48454e-05 0)
(-0.000335773 0.000117857 0)
(-0.000529817 0.000139462 0)
(-0.000752774 0.000159501 0)
(-0.0010026 0.000177894 0)
(-0.00127714 0.000194621 0)
(-0.00157419 0.000209701 0)
(-0.0018916 0.000223184 0)
(-0.00222724 0.000235142 0)
(-0.00257909 0.00024566 0)
(-0.00294524 0.000254838 0)
(-0.00332388 0.000262776 0)
(-0.00371337 0.000269577 0)
(-0.00411218 0.000275348 0)
(-0.00451892 0.000280192 0)
(-0.00493234 0.000284208 0)
(-0.00535132 0.000287493 0)
(-0.00577487 0.000290138 0)
(-0.00620212 0.000292228 0)
(-0.00663231 0.000293843 0)
(-0.0070648 0.000295058 0)
(-0.00749904 0.000295941 0)
(-0.00793457 0.000296556 0)
(-0.00837104 0.000296958 0)
(-0.00880814 0.000297199 0)
(-0.00924565 0.000297326 0)
(-0.00968342 0.000297381 0)
(-0.0101213 0.0002974 0)
(-0.0105594 0.000297416 0)
(-0.0109975 0.000297458 0)
(-0.0114357 0.000297552 0)
(-0.0118742 0.000297721 0)
(-0.012313 0.000297982 0)
(-0.0127522 0.000298354 0)
(-0.0131919 0.000298851 0)
(-0.0136325 0.000299485 0)
(-0.014074 0.000300267 0)
(-0.0145167 0.000301206 0)
(-0.0149607 0.00030231 0)
(-0.0154064 0.000303585 0)
(-0.0158539 0.000305034 0)
(-0.0163035 0.000306662 0)
(-0.0167554 0.000308472 0)
(-0.0172099 0.000310463 0)
(-0.0176673 0.000312637 0)
(-0.0181278 0.000314992 0)
(-0.0185915 0.000317525 0)
(-0.0190589 0.000320233 0)
(-0.0195301 0.000323113 0)
(-0.0200054 0.000326157 0)
(-0.0204849 0.00032936 0)
(-0.0209689 0.000332712 0)
(-0.0214575 0.000336205 0)
(-0.0219511 0.000339828 0)
(-0.0224496 0.000343567 0)
(-0.0229533 0.00034741 0)
(-0.0234623 0.000351338 0)
(-0.0239766 0.000355335 0)
(-0.0244964 0.000359381 0)
(-0.0250217 0.000363455 0)
(-0.0255524 0.000367531 0)
(-0.0260885 0.000371585 0)
(-0.0266301 0.000375585 0)
(-0.0271768 0.000379502 0)
(-0.0277286 0.000383302 0)
(-0.0282853 0.00038695 0)
(-0.0288465 0.000390407 0)
(-0.0294119 0.000393631 0)
(-0.0299812 0.000396578 0)
(-0.0305539 0.0003992 0)
(-0.0311294 0.000401447 0)
(-0.0317072 0.000403266 0)
(-0.0322865 0.000404601 0)
(-0.0328666 0.000405393 0)
(-0.0334467 0.00040558 0)
(-0.0340257 0.000405098 0)
(-0.0346027 0.000403879 0)
(-0.0351765 0.000401854 0)
(-0.0357459 0.00039895 0)
(-0.0363096 0.000395093 0)
(-0.0368661 0.000390207 0)
(-0.0374138 0.000384215 0)
(-0.0379511 0.000377036 0)
(-0.0384763 0.000368592 0)
(-0.0389875 0.000358803 0)
(-0.0394826 0.00034759 0)
(-0.0399596 0.000334874 0)
(-0.0404163 0.000320578 0)
(-0.0408504 0.000304628 0)
(-0.0412595 0.000286953 0)
(-0.0416411 0.000267488 0)
(-0.0419927 0.000246171 0)
(-0.0423115 0.00022295 0)
(-0.042595 0.000197778 0)
(-0.0428403 0.000170617 0)
(-0.0430447 0.000141441 0)
(-0.0432054 0.000110236 0)
(-0.0433195 7.69994e-05 0)
(-0.0433843 4.17448e-05 0)
(-0.0433969 4.50137e-06 0)
(-0.0433548 -3.46839e-05 0)
(-0.0432553 -7.57454e-05 0)
(-0.0430959 -0.000118597 0)
(-0.0428743 -0.000163132 0)
(-0.0425883 -0.00020922 0)
(-0.0422359 -0.000256708 0)
(-0.0418155 -0.000305418 0)
(-0.0413256 -0.000355148 0)
(-0.0407649 -0.000405669 0)
(-0.0401328 -0.000456729 0)
(-0.0394287 -0.000508052 0)
(-0.0386527 -0.000559335 0)
(-0.0378052 -0.000610254 0)
(-0.0368869 -0.000660464 0)
(-0.0358994 -0.000709602 0)
(-0.0348443 -0.000757287 0)
(-0.0337242 -0.000803125 0)
(-0.032542 -0.000846711 0)
(-0.0313012 -0.000887634 0)
(-0.0300059 -0.000925483 0)
(-0.0286606 -0.000959846 0)
(-0.0272707 -0.000990321 0)
(-0.0258417 -0.00101652 0)
(-0.02438 -0.00103806 0)
(-0.0228923 -0.0010546 0)
(-0.0213857 -0.00106582 0)
(-0.0198679 -0.00107142 0)
(-0.0183468 -0.00107115 0)
(-0.0168307 -0.0010648 0)
(-0.0153282 -0.00105221 0)
(-0.0138479 -0.00103326 0)
(-0.0123987 -0.00100787 0)
(-0.0109895 -0.000976033 0)
(-0.00962904 -0.00093779 0)
(-0.00832617 -0.000893233 0)
(-0.00708942 -0.000842509 0)
(-0.00592705 -0.000785823 0)
(-0.00484699 -0.000723441 0)
(-0.00385666 -0.000655694 0)
(-0.00296294 -0.000582989 0)
(-0.00217197 -0.000505831 0)
(-0.001489 -0.000424856 0)
(-0.000918125 -0.000340893 0)
(-0.000461947 -0.000255076 0)
(-0.000121057 -0.000169027 0)
(0.00010672 -8.51764e-05 0)
(0.000227517 -7.30773e-06 0)
(0.000252866 5.8565e-05 0)
(0.000202105 0.000102749 0)
(0.000109643 0.000109875 0)
(2.92913e-05 5.94401e-05 0)
(1.24118e-05 -4.55318e-05 0)
(4.87466e-05 -8.93635e-05 0)
(9.46704e-05 -9.398e-05 0)
(0.000126894 -6.97384e-05 0)
(0.000129969 -2.59296e-05 0)
(9.43523e-05 3.02483e-05 0)
(1.37388e-05 9.34904e-05 0)
(-0.000115561 0.000159997 0)
(-0.000295139 0.00022709 0)
(-0.000525008 0.000292905 0)
(-0.000804029 0.000356165 0)
(-0.00113024 0.000416021 0)
(-0.00150111 0.000471934 0)
(-0.00191375 0.000523598 0)
(-0.00236503 0.000570878 0)
(-0.00285174 0.000613763 0)
(-0.00337063 0.000652339 0)
(-0.00391855 0.000686757 0)
(-0.0044924 0.000717221 0)
(-0.00508925 0.000743966 0)
(-0.00570635 0.000767251 0)
(-0.00634112 0.000787345 0)
(-0.00699116 0.000804526 0)
(-0.0076543 0.000819066 0)
(-0.00832855 0.000831237 0)
(-0.00901214 0.0008413 0)
(-0.00970347 0.000849505 0)
(-0.0104011 0.000856089 0)
(-0.0111039 0.000861276 0)
(-0.0118108 0.000865273 0)
(-0.0125208 0.000868274 0)
(-0.0132331 0.000870455 0)
(-0.0139473 0.000871979 0)
(-0.0146627 0.000872994 0)
(-0.015379 0.000873633 0)
(-0.0160958 0.000874017 0)
(-0.0168131 0.000874253 0)
(-0.0175306 0.000874439 0)
(-0.0182483 0.000874659 0)
(-0.0189663 0.000874989 0)
(-0.0196846 0.000875496 0)
(-0.0204034 0.000876238 0)
(-0.0211229 0.000877266 0)
(-0.0218432 0.000878623 0)
(-0.0225647 0.000880347 0)
(-0.0232875 0.000882472 0)
(-0.0240121 0.000885023 0)
(-0.0247387 0.000888026 0)
(-0.0254678 0.000891496 0)
(-0.0261996 0.000895449 0)
(-0.0269345 0.000899895 0)
(-0.027673 0.000904841 0)
(-0.0284153 0.000910292 0)
(-0.0291619 0.000916246 0)
(-0.0299132 0.000922701 0)
(-0.0306696 0.000929649 0)
(-0.0314314 0.00093708 0)
(-0.0321989 0.000944981 0)
(-0.0329726 0.000953334 0)
(-0.0337527 0.00096212 0)
(-0.0345397 0.000971312 0)
(-0.0353337 0.000980881 0)
(-0.036135 0.000990794 0)
(-0.0369439 0.00100101 0)
(-0.0377606 0.0010115 0)
(-0.0385852 0.00102219 0)
(-0.0394179 0.00103305 0)
(-0.0402587 0.00104401 0)
(-0.0411076 0.00105501 0)
(-0.0419646 0.00106598 0)
(-0.0428297 0.00107683 0)
(-0.0437026 0.00108749 0)
(-0.0445832 0.00109787 0)
(-0.045471 0.00110785 0)
(-0.0463658 0.00111735 0)
(-0.047267 0.00112625 0)
(-0.0481741 0.00113442 0)
(-0.0490864 0.00114174 0)
(-0.0500031 0.00114807 0)
(-0.0509232 0.00115327 0)
(-0.0518459 0.00115719 0)
(-0.0527699 0.00115965 0)
(-0.053694 0.0011605 0)
(-0.0546168 0.00115957 0)
(-0.0555366 0.00115665 0)
(-0.0564519 0.00115157 0)
(-0.0573608 0.00114413 0)
(-0.0582613 0.00113413 0)
(-0.0591511 0.00112135 0)
(-0.0600281 0.00110558 0)
(-0.0608896 0.00108661 0)
(-0.061733 0.00106422 0)
(-0.0625556 0.00103819 0)
(-0.0633542 0.0010083 0)
(-0.0641258 0.000974329 0)
(-0.0648669 0.000936069 0)
(-0.0655743 0.000893312 0)
(-0.0662441 0.000845859 0)
(-0.0668726 0.000793523 0)
(-0.067456 0.000736129 0)
(-0.0679903 0.000673522 0)
(-0.0684712 0.000605562 0)
(-0.0688946 0.000532137 0)
(-0.0692562 0.000453159 0)
(-0.0695517 0.000368568 0)
(-0.0697768 0.000278343 0)
(-0.0699271 0.000182495 0)
(-0.0699984 8.10811e-05 0)
(-0.0699865 -2.57991e-05 0)
(-0.0698872 -0.000137996 0)
(-0.0696967 -0.000255307 0)
(-0.0694111 -0.000377474 0)
(-0.0690271 -0.000504181 0)
(-0.0685413 -0.000635047 0)
(-0.0679509 -0.00076963 0)
(-0.0672533 -0.000907419 0)
(-0.0664465 -0.00104784 0)
(-0.0655289 -0.00119024 0)
(-0.0644994 -0.00133392 0)
(-0.0633575 -0.00147809 0)
(-0.0621033 -0.00162192 0)
(-0.0607377 -0.00176449 0)
(-0.0592622 -0.00190487 0)
(-0.057679 -0.00204203 0)
(-0.0559913 -0.00217493 0)
(-0.0542028 -0.00230249 0)
(-0.0523183 -0.00242359 0)
(-0.0503433 -0.00253712 0)
(-0.0482844 -0.00264193 0)
(-0.0461486 -0.00273692 0)
(-0.0439441 -0.00282098 0)
(-0.0416799 -0.00289305 0)
(-0.0393656 -0.00295212 0)
(-0.0370116 -0.00299724 0)
(-0.0346291 -0.00302752 0)
(-0.0322298 -0.0030422 0)
(-0.029826 -0.00304058 0)
(-0.0274303 -0.00302211 0)
(-0.0250561 -0.00298633 0)
(-0.0227166 -0.00293294 0)
(-0.0204253 -0.00286178 0)
(-0.018196 -0.00277281 0)
(-0.0160422 -0.00266619 0)
(-0.0139772 -0.00254221 0)
(-0.012014 -0.00240133 0)
(-0.0101652 -0.00224418 0)
(-0.00844279 -0.0020716 0)
(-0.00685783 -0.00188462 0)
(-0.00542049 -0.00168452 0)
(-0.00413972 -0.00147291 0)
(-0.0030229 -0.00125181 0)
(-0.00207553 -0.00102381 0)
(-0.00130068 -0.00079236 0)
(-0.00069828 -0.000562171 0)
(-0.000264153 -0.000339876 0)
(1.1311e-05 -0.000135001 0)
(0.000144633 3.85289e-05 0)
(0.000161351 0.000160532 0)
(0.000102668 0.000202252 0)
(3.04684e-05 0.000123678 0)
(1.14036e-05 -7.22848e-05 0)
(4.11664e-05 -0.000131265 0)
(7.07731e-05 -0.000126341 0)
(7.59236e-05 -7.50346e-05 0)
(4.02825e-05 8.64591e-06 0)
(-4.66396e-05 0.000113539 0)
(-0.000191941 0.000231085 0)
(-0.000399921 0.00035489 0)
(-0.000672546 0.00048026 0)
(-0.00100996 0.000603803 0)
(-0.0014109 0.000723114 0)
(-0.0018731 0.000836531 0)
(-0.00239354 0.000942955 0)
(-0.00296867 0.00104172 0)
(-0.00359465 0.00113248 0)
(-0.00426746 0.00121515 0)
(-0.00498301 0.00128981 0)
(-0.00573726 0.0013567 0)
(-0.00652627 0.00141614 0)
(-0.00734625 0.00146855 0)
(-0.00819362 0.00151438 0)
(-0.00906499 0.00155411 0)
(-0.00995723 0.00158825 0)
(-0.0108675 0.0016173 0)
(-0.0117931 0.00164176 0)
(-0.0127317 0.00166212 0)
(-0.0136811 0.00167885 0)
(-0.0146395 0.00169239 0)
(-0.0156051 0.00170317 0)
(-0.0165766 0.00171159 0)
(-0.0175527 0.00171801 0)
(-0.0185323 0.00172278 0)
(-0.0195146 0.00172621 0)
(-0.0204988 0.00172858 0)
(-0.0214843 0.00173016 0)
(-0.0224708 0.00173118 0)
(-0.023458 0.00173185 0)
(-0.0244455 0.00173236 0)
(-0.0254335 0.00173288 0)
(-0.0264217 0.00173357 0)
(-0.0274104 0.00173454 0)
(-0.0283997 0.00173593 0)
(-0.0293897 0.00173783 0)
(-0.0303808 0.00174032 0)
(-0.0313732 0.0017435 0)
(-0.0323674 0.00174741 0)
(-0.0333636 0.00175212 0)
(-0.0343624 0.00175768 0)
(-0.0353642 0.00176411 0)
(-0.0363694 0.00177145 0)
(-0.0373785 0.00177973 0)
(-0.038392 0.00178894 0)
(-0.0394104 0.00179911 0)
(-0.0404343 0.00181023 0)
(-0.041464 0.0018223 0)
(-0.0425001 0.0018353 0)
(-0.0435431 0.0018492 0)
(-0.0445934 0.00186399 0)
(-0.0456514 0.00187963 0)
(-0.0467177 0.00189607 0)
(-0.0477926 0.00191327 0)
(-0.0488764 0.00193116 0)
(-0.0499695 0.00194968 0)
(-0.0510722 0.00196876 0)
(-0.0521847 0.00198829 0)
(-0.0533071 0.0020082 0)
(-0.0544397 0.00202837 0)
(-0.0555825 0.00204868 0)
(-0.0567354 0.00206901 0)
(-0.0578984 0.00208921 0)
(-0.0590713 0.00210913 0)
(-0.0602538 0.0021286 0)
(-0.0614456 0.00214744 0)
(-0.0626462 0.00216547 0)
(-0.0638551 0.00218247 0)
(-0.0650714 0.00219821 0)
(-0.0662945 0.00221247 0)
(-0.0675233 0.002225 0)
(-0.0687567 0.00223552 0)
(-0.0699935 0.00224375 0)
(-0.0712322 0.0022494 0)
(-0.0724713 0.00225216 0)
(-0.0737089 0.00225169 0)
(-0.0749432 0.00224766 0)
(-0.076172 0.00223972 0)
(-0.077393 0.0022275 0)
(-0.0786037 0.00221062 0)
(-0.0798012 0.00218869 0)
(-0.0809828 0.00216132 0)
(-0.0821452 0.0021281 0)
(-0.083285 0.00208862 0)
(-0.0843987 0.00204246 0)
(-0.0854825 0.00198921 0)
(-0.0865323 0.00192847 0)
(-0.087544 0.00185982 0)
(-0.088513 0.00178287 0)
(-0.0894348 0.00169723 0)
(-0.0903045 0.00160254 0)
(-0.0911172 0.00149847 0)
(-0.0918677 0.00138468 0)
(-0.0925507 0.0012609 0)
(-0.0931608 0.0011269 0)
(-0.0936924 0.000982463 0)
(-0.0941401 0.000827457 0)
(-0.0944982 0.000661793 0)
(-0.094761 0.00048545 0)
(-0.0949229 0.00029848 0)
(-0.0949785 0.000101014 0)
(-0.0949224 -0.00010673 0)
(-0.0947492 -0.000324441 0)
(-0.094454 -0.000551709 0)
(-0.094032 -0.000788016 0)
(-0.0934788 -0.00103273 0)
(-0.0927904 -0.00128512 0)
(-0.0919631 -0.00154431 0)
(-0.0909939 -0.00180931 0)
(-0.0898802 -0.00207901 0)
(-0.0886201 -0.00235218 0)
(-0.0872125 -0.00262745 0)
(-0.085657 -0.00290334 0)
(-0.0839539 -0.00317824 0)
(-0.0821045 -0.00345045 0)
(-0.0801109 -0.00371815 0)
(-0.0779764 -0.00397945 0)
(-0.0757052 -0.00423236 0)
(-0.0733023 -0.00447485 0)
(-0.0707743 -0.00470482 0)
(-0.0681283 -0.00492018 0)
(-0.0653729 -0.0051188 0)
(-0.0625177 -0.00529858 0)
(-0.0595732 -0.00545748 0)
(-0.0565512 -0.0055935 0)
(-0.0534644 -0.00570476 0)
(-0.0503262 -0.00578948 0)
(-0.0471512 -0.00584603 0)
(-0.0439547 -0.00587296 0)
(-0.0407526 -0.005869 0)
(-0.0375615 -0.0058331 0)
(-0.0343984 -0.00576445 0)
(-0.0312807 -0.00566249 0)
(-0.0282258 -0.00552694 0)
(-0.0252515 -0.00535779 0)
(-0.0223751 -0.00515535 0)
(-0.019614 -0.00492023 0)
(-0.0169848 -0.00465336 0)
(-0.0145037 -0.00435606 0)
(-0.0121859 -0.00403 0)
(-0.0100456 -0.00367729 0)
(-0.00809539 -0.00330055 0)
(-0.00634645 -0.00290304 0)
(-0.00480778 -0.00248882 0)
(-0.00348582 -0.00206306 0)
(-0.00238389 -0.00163244 0)
(-0.0015014 -0.00120578 0)
(-0.000832832 -0.00079503 0)
(-0.000366562 -0.000416523 0)
(-8.34939e-05 -9.28956e-05 0)
(4.46853e-05 0.000144793 0)
(6.02707e-05 0.000254336 0)
(2.31543e-05 0.000175693 0)
(8.6209e-06 -9.23215e-05 0)
(2.49621e-05 -0.000155245 0)
(2.66276e-05 -0.000129386 0)
(-8.93084e-06 -3.92468e-05 0)
(-9.7549e-05 9.63686e-05 0)
(-0.000249826 0.000262388 0)
(-0.000472985 0.000446988 0)
(-0.000771426 0.000641108 0)
(-0.00114716 0.000837908 0)
(-0.00160029 0.00103231 0)
(-0.00212939 0.0012206 0)
(-0.0027319 0.00140017 0)
(-0.00340438 0.00156923 0)
(-0.0041428 0.00172663 0)
(-0.00494273 0.00187176 0)
(-0.0057995 0.00200437 0)
(-0.00670833 0.00212453 0)
(-0.00766448 0.00223252 0)
(-0.00866328 0.00232882 0)
(-0.00970023 0.00241401 0)
(-0.010771 0.00248876 0)
(-0.0118716 0.00255381 0)
(-0.0129983 0.00260991 0)
(-0.0141474 0.00265786 0)
(-0.0153159 0.00269841 0)
(-0.0165007 0.00273233 0)
(-0.0176994 0.00276036 0)
(-0.0189095 0.0027832 0)
(-0.0201289 0.00280152 0)
(-0.0213558 0.00281594 0)
(-0.0225888 0.00282707 0)
(-0.0238264 0.00283543 0)
(-0.0250675 0.00284154 0)
(-0.0263111 0.00284586 0)
(-0.0275566 0.00284881 0)
(-0.0288034 0.00285076 0)
(-0.0300511 0.00285207 0)
(-0.0312993 0.00285304 0)
(-0.0325479 0.00285395 0)
(-0.0337969 0.00285504 0)
(-0.0350462 0.00285654 0)
(-0.0362962 0.00285864 0)
(-0.037547 0.00286149 0)
(-0.0387988 0.00286526 0)
(-0.0400521 0.00287007 0)
(-0.0413072 0.00287603 0)
(-0.0425647 0.00288323 0)
(-0.0438249 0.00289174 0)
(-0.0450885 0.00290164 0)
(-0.0463559 0.00291296 0)
(-0.0476278 0.00292574 0)
(-0.0489047 0.00294002 0)
(-0.0501872 0.00295579 0)
(-0.0514758 0.00297306 0)
(-0.0527713 0.00299182 0)
(-0.0540741 0.00301204 0)
(-0.0553848 0.0030337 0)
(-0.056704 0.00305673 0)
(-0.0580322 0.00308109 0)
(-0.0593699 0.0031067 0)
(-0.0607175 0.00313349 0)
(-0.0620755 0.00316133 0)
(-0.0634442 0.00319014 0)
(-0.0648239 0.00321977 0)
(-0.0662149 0.00325009 0)
(-0.0676175 0.00328093 0)
(-0.0690316 0.00331212 0)
(-0.0704573 0.00334346 0)
(-0.0718946 0.00337474 0)
(-0.0733433 0.00340572 0)
(-0.0748031 0.00343616 0)
(-0.0762736 0.00346577 0)
(-0.0777544 0.00349427 0)
(-0.0792449 0.00352134 0)
(-0.0807441 0.00354663 0)
(-0.0822513 0.00356978 0)
(-0.0837653 0.00359042 0)
(-0.0852848 0.00360812 0)
(-0.0868085 0.00362246 0)
(-0.0883346 0.00363299 0)
(-0.0898615 0.00363921 0)
(-0.091387 0.00364064 0)
(-0.092909 0.00363673 0)
(-0.0944249 0.00362696 0)
(-0.0959322 0.00361074 0)
(-0.0974277 0.00358749 0)
(-0.0989085 0.00355662 0)
(-0.100371 0.00351749 0)
(-0.101812 0.00346949 0)
(-0.103227 0.00341196 0)
(-0.104612 0.00334425 0)
(-0.105962 0.00326573 0)
(-0.107274 0.00317573 0)
(-0.108541 0.0030736 0)
(-0.109759 0.00295873 0)
(-0.110923 0.00283049 0)
(-0.112026 0.00268829 0)
(-0.113063 0.00253157 0)
(-0.114028 0.0023598 0)
(-0.114914 0.00217252 0)
(-0.115715 0.00196929 0)
(-0.116426 0.00174977 0)
(-0.117038 0.00151367 0)
(-0.117545 0.00126079 0)
(-0.117941 0.000991038 0)
(-0.118218 0.000704406 0)
(-0.118371 0.000401015 0)
(-0.118393 8.11098e-05 0)
(-0.118277 -0.000254926 0)
(-0.118017 -0.000606564 0)
(-0.117607 -0.000973114 0)
(-0.117041 -0.00135372 0)
(-0.116316 -0.00174736 0)
(-0.115425 -0.00215282 0)
(-0.114364 -0.0025687 0)
(-0.113131 -0.00299341 0)
(-0.111723 -0.00342516 0)
(-0.110136 -0.00386198 0)
(-0.108371 -0.00430169 0)
(-0.106427 -0.00474194 0)
(-0.104304 -0.00518019 0)
(-0.102005 -0.00561373 0)
(-0.0995312 -0.00603972 0)
(-0.096888 -0.00645514 0)
(-0.0940801 -0.00685689 0)
(-0.0911139 -0.00724176 0)
(-0.0879972 -0.00760648 0)
(-0.0847389 -0.00794774 0)
(-0.0813492 -0.00826222 0)
(-0.0778398 -0.00854665 0)
(-0.0742235 -0.00879782 0)
(-0.0705142 -0.00901262 0)
(-0.0667272 -0.0091881 0)
(-0.0628788 -0.00932149 0)
(-0.0589862 -0.00941025 0)
(-0.0550679 -0.00945211 0)
(-0.0511428 -0.00944511 0)
(-0.0472307 -0.00938761 0)
(-0.0433519 -0.00927837 0)
(-0.0395272 -0.00911653 0)
(-0.0357774 -0.00890169 0)
(-0.0321235 -0.00863388 0)
(-0.0285863 -0.00831364 0)
(-0.0251863 -0.00794201 0)
(-0.0219434 -0.00752056 0)
(-0.0188765 -0.00705145 0)
(-0.0160036 -0.00653749 0)
(-0.0133413 -0.00598219 0)
(-0.0109045 -0.00538988 0)
(-0.00870605 -0.00476594 0)
(-0.00675617 -0.00411699 0)
(-0.00506221 -0.00345133 0)
(-0.00362781 -0.00277948 0)
(-0.00245225 -0.00211497 0)
(-0.00152956 -0.00147546 0)
(-0.000847453 -0.000884317 0)
(-0.000386221 -0.000372645 0)
(-0.000117276 1.83769e-05 0)
(-1.36699e-06 0.000234419 0)
(1.19826e-05 0.000198678 0)
(4.88944e-06 -0.000102181 0)
(3.35034e-06 -0.000153341 0)
(-3.12822e-05 -9.26246e-05 0)
(-0.000117807 4.94255e-05 0)
(-0.000270436 0.000249549 0)
(-0.000499238 0.00048896 0)
(-0.000811015 0.000752704 0)
(-0.00120983 0.00102911 0)
(-0.00169744 0.00130918 0)
(-0.00227368 0.0015861 0)
(-0.00293686 0.00185479 0)
(-0.00368407 0.00211159 0)
(-0.00451151 0.00235394 0)
(-0.00541468 0.00258015 0)
(-0.00638867 0.00278925 0)
(-0.00742825 0.00298083 0)
(-0.00852808 0.00315487 0)
(-0.00968282 0.00331171 0)
(-0.0108872 0.00345196 0)
(-0.0121361 0.00357636 0)
(-0.0134246 0.00368585 0)
(-0.0147481 0.0037814 0)
(-0.0161023 0.00386408 0)
(-0.0174831 0.00393497 0)
(-0.0188868 0.00399514 0)
(-0.02031 0.00404567 0)
(-0.0217497 0.0040876 0)
(-0.0232031 0.00412193 0)
(-0.0246677 0.00414961 0)
(-0.0261414 0.00417154 0)
(-0.0276223 0.00418857 0)
(-0.0291089 0.00420148 0)
(-0.0305998 0.00421101 0)
(-0.0320938 0.00421781 0)
(-0.0335901 0.0042225 0)
(-0.0350879 0.00422563 0)
(-0.0365867 0.00422772 0)
(-0.038086 0.0042292 0)
(-0.0395858 0.0042305 0)
(-0.0410858 0.00423197 0)
(-0.0425861 0.00423394 0)
(-0.0440869 0.00423669 0)
(-0.0455884 0.00424046 0)
(-0.0470908 0.00424549 0)
(-0.0485946 0.00425196 0)
(-0.0501001 0.00426003 0)
(-0.051608 0.00426985 0)
(-0.0531188 0.00428152 0)
(-0.0546329 0.00429514 0)
(-0.0561511 0.00431078 0)
(-0.057674 0.0043285 0)
(-0.0592022 0.00434833 0)
(-0.0607365 0.00437029 0)
(-0.0622773 0.00439438 0)
(-0.0638256 0.00442058 0)
(-0.0653817 0.00444886 0)
(-0.0669465 0.00447916 0)
(-0.0685205 0.00451141 0)
(-0.0701043 0.00454553 0)
(-0.0716985 0.0045814 0)
(-0.0733034 0.0046189 0)
(-0.0749197 0.00465788 0)
(-0.0765477 0.00469817 0)
(-0.0781877 0.00473958 0)
(-0.0798399 0.00478189 0)
(-0.0815046 0.00482487 0)
(-0.0831818 0.00486824 0)
(-0.0848715 0.00491173 0)
(-0.0865736 0.00495501 0)
(-0.0882878 0.00499774 0)
(-0.0900138 0.00503954 0)
(-0.091751 0.00508001 0)
(-0.0934988 0.00511872 0)
(-0.0952564 0.00515519 0)
(-0.0970229 0.00518892 0)
(-0.0987969 0.0052194 0)
(-0.100577 0.00524604 0)
(-0.102362 0.00526826 0)
(-0.104151 0.00528541 0)
(-0.10594 0.00529684 0)
(-0.107728 0.00530185 0)
(-0.109512 0.00529971 0)
(-0.11129 0.00528965 0)
(-0.113059 0.00527089 0)
(-0.114816 0.0052426 0)
(-0.116556 0.00520395 0)
(-0.118277 0.00515405 0)
(-0.119974 0.00509204 0)
(-0.121643 0.00501699 0)
(-0.12328 0.00492799 0)
(-0.124879 0.00482413 0)
(-0.126435 0.00470447 0)
(-0.127943 0.00456809 0)
(-0.129397 0.00441409 0)
(-0.13079 0.00424157 0)
(-0.132118 0.00404967 0)
(-0.133372 0.00383757 0)
(-0.134547 0.0036045 0)
(-0.135636 0.00334972 0)
(-0.13663 0.00307259 0)
(-0.137523 0.00277255 0)
(-0.138307 0.00244912 0)
(-0.138976 0.00210194 0)
(-0.13952 0.00173077 0)
(-0.139933 0.00133551 0)
(-0.140206 0.000916196 0)
(-0.140333 0.000473054 0)
(-0.140306 6.47955e-06 0)
(-0.140118 -0.000482932 0)
(-0.139761 -0.000994376 0)
(-0.13923 -0.00152682 0)
(-0.138518 -0.00207901 0)
(-0.137619 -0.00264943 0)
(-0.136529 -0.0032363 0)
(-0.135242 -0.00383759 0)
(-0.133755 -0.00445101 0)
(-0.132065 -0.00507397 0)
(-0.130171 -0.00570364 0)
(-0.128069 -0.0063369 0)
(-0.125762 -0.00697037 0)
(-0.123249 -0.00760043 0)
(-0.120533 -0.00822324 0)
(-0.117617 -0.00883471 0)
(-0.114506 -0.00943059 0)
(-0.111206 -0.0100065 0)
(-0.107725 -0.0105578 0)
(-0.104071 -0.0110799 0)
(-0.100255 -0.0115682 0)
(-0.0962891 -0.0120179 0)
(-0.0921857 -0.0124245 0)
(-0.0879597 -0.0127833 0)
(-0.0836273 -0.01309 0)
(-0.0792057 -0.0133404 0)
(-0.0747136 -0.0135306 0)
(-0.0701707 -0.0136571 0)
(-0.0655977 -0.0137166 0)
(-0.0610165 -0.0137064 0)
(-0.0564494 -0.0136242 0)
(-0.0519195 -0.0134682 0)
(-0.0474504 -0.0132373 0)
(-0.0430657 -0.0129309 0)
(-0.0387894 -0.0125491 0)
(-0.034645 -0.0120928 0)
(-0.0306557 -0.0115634 0)
(-0.0268439 -0.0109635 0)
(-0.0232313 -0.0102961 0)
(-0.0198379 -0.00956536 0)
(-0.0166826 -0.00877655 0)
(-0.013782 -0.00793601 0)
(-0.0111504 -0.00705156 0)
(-0.00879942 -0.00613279 0)
(-0.00673718 -0.00519152 0)
(-0.00496799 -0.00424243 0)
(-0.00349153 -0.00330402 0)
(-0.00230218 -0.00239975 0)
(-0.00138825 -0.00155975 0)
(-0.000730972 -0.000822956 0)
(-0.000303375 -0.000239403 0)
(-7.21201e-05 0.000126553 0)
(-5.75634e-07 0.000185938 0)
(6.70663e-07 -9.97838e-05 0)
(-2.15842e-05 -0.000120076 0)
(-9.83292e-05 -8.34786e-06 0)
(-0.000243343 0.000200015 0)
(-0.000468395 0.00047784 0)
(-0.00078249 0.000802985 0)
(-0.00119156 0.0011576 0)
(-0.00169898 0.00152754 0)
(-0.00230592 0.00190175 0)
(-0.00301178 0.00227171 0)
(-0.00381444 0.00263096 0)
(-0.00471058 0.00297478 0)
(-0.00569598 0.00329978 0)
(-0.00676571 0.00360372 0)
(-0.00791437 0.00388523 0)
(-0.00913629 0.00414368 0)
(-0.0104256 0.00437898 0)
(-0.0117764 0.0045915 0)
(-0.013183 0.00478195 0)
(-0.0146397 0.00495128 0)
(-0.0161412 0.00510065 0)
(-0.0176821 0.00523134 0)
(-0.0192578 0.00534471 0)
(-0.0208638 0.00544217 0)
(-0.0224958 0.00552514 0)
(-0.0241501 0.00559501 0)
(-0.0258231 0.00565318 0)
(-0.0275119 0.00570097 0)
(-0.0292136 0.00573965 0)
(-0.0309257 0.00577042 0)
(-0.0326462 0.00579441 0)
(-0.0343731 0.00581269 0)
(-0.0361049 0.00582623 0)
(-0.0378403 0.00583594 0)
(-0.0395782 0.00584264 0)
(-0.0413178 0.0058471 0)
(-0.0430583 0.00584999 0)
(-0.0447994 0.00585195 0)
(-0.0465406 0.00585352 0)
(-0.0482819 0.0058552 0)
(-0.0500233 0.00585745 0)
(-0.0517649 0.00586065 0)
(-0.0535068 0.00586514 0)
(-0.0552494 0.00587125 0)
(-0.056993 0.00587922 0)
(-0.0587383 0.00588928 0)
(-0.0604856 0.00590163 0)
(-0.0622356 0.00591642 0)
(-0.0639889 0.00593379 0)
(-0.0657461 0.00595384 0)
(-0.067508 0.00597664 0)
(-0.0692753 0.00600224 0)
(-0.0710487 0.00603067 0)
(-0.0728289 0.00606192 0)
(-0.0746166 0.00609597 0)
(-0.0764125 0.00613277 0)
(-0.0782174 0.00617224 0)
(-0.0800319 0.00621429 0)
(-0.0818565 0.00625879 0)
(-0.083692 0.00630559 0)
(-0.0855388 0.00635451 0)
(-0.0873973 0.00640534 0)
(-0.0892681 0.00645784 0)
(-0.0911513 0.00651175 0)
(-0.0930473 0.00656677 0)
(-0.0949563 0.00662257 0)
(-0.0968781 0.00667878 0)
(-0.0988128 0.00673499 0)
(-0.10076 0.00679077 0)
(-0.10272 0.00684564 0)
(-0.104691 0.00689908 0)
(-0.106674 0.00695054 0)
(-0.108667 0.00699942 0)
(-0.11067 0.00704507 0)
(-0.11268 0.00708682 0)
(-0.114698 0.00712393 0)
(-0.116721 0.00715563 0)
(-0.118747 0.00718111 0)
(-0.120774 0.0071995 0)
(-0.122801 0.0072099 0)
(-0.124824 0.00721137 0)
(-0.126841 0.00720291 0)
(-0.128848 0.00718349 0)
(-0.130842 0.00715205 0)
(-0.13282 0.00710748 0)
(-0.134778 0.00704865 0)
(-0.13671 0.00697438 0)
(-0.138613 0.0068835 0)
(-0.140482 0.0067748 0)
(-0.142311 0.00664704 0)
(-0.144095 0.00649901 0)
(-0.145827 0.00632947 0)
(-0.147503 0.00613721 0)
(-0.149115 0.00592103 0)
(-0.150656 0.00567977 0)
(-0.15212 0.00541229 0)
(-0.153498 0.00511752 0)
(-0.154785 0.00479445 0)
(-0.155971 0.00444217 0)
(-0.157048 0.00405984 0)
(-0.15801 0.00364674 0)
(-0.158846 0.0032023 0)
(-0.15955 0.00272607 0)
(-0.160112 0.0022178 0)
(-0.160524 0.00167739 0)
(-0.160779 0.00110496 0)
(-0.160866 0.000500868 0)
(-0.160779 -0.000134304 0)
(-0.16051 -0.000799705 0)
(-0.160052 -0.0014942 0)
(-0.159396 -0.00221637 0)
(-0.158536 -0.00296446 0)
(-0.157467 -0.00373642 0)
(-0.156183 -0.00452983 0)
(-0.154679 -0.00534195 0)
(-0.152951 -0.00616966 0)
(-0.150996 -0.00700951 0)
(-0.148812 -0.00785767 0)
(-0.146397 -0.00870998 0)
(-0.143753 -0.00956194 0)
(-0.140879 -0.0104087 0)
(-0.13778 -0.0112452 0)
(-0.134458 -0.0120659 0)
(-0.130919 -0.0128652 0)
(-0.127171 -0.0136373 0)
(-0.12322 -0.0143761 0)
(-0.119078 -0.0150756 0)
(-0.114756 -0.0157294 0)
(-0.110266 -0.0163314 0)
(-0.105624 -0.0168754 0)
(-0.100845 -0.0173555 0)
(-0.0959483 -0.0177659 0)
(-0.0909516 -0.0181011 0)
(-0.0858759 -0.0183558 0)
(-0.0807428 -0.0185254 0)
(-0.0755754 -0.0186056 0)
(-0.0703974 -0.0185928 0)