/*--------------------------------*- C++ -*----------------------------------*\
  =========                 |
  \\      /  F ield         | OpenFOAM: The Open Source CFD Toolbox
   \\    /   O peration     | Website:  https://openfoam.org
    \\  /    A nd           | Version:  7
     \\/     M anipulation  |
\*---------------------------------------------------------------------------*/
FoamFile
{
    version     2.0;
    format      ascii;
    class       volScalarField;
    location    "0.2375";
    object      p;
}
// * * * * * * * * * * * * * * * * * * * * * * * * * * * * * * * * * * * * * //

dimensions      [0 2 -2 0 0 0 0];

internalField   nonuniform List<scalar> 
51200
(
5.82941e-06
7.81243e-06
7.53919e-06
8.9732e-06
1.26442e-05
1.79967e-05
2.46427e-05
3.22078e-05
4.04836e-05
4.90916e-05
5.79468e-05
6.68241e-05
7.55903e-05
8.41027e-05
9.22326e-05
9.99081e-05
0.000107036
0.000113576
0.000119464
0.0001246
0.000128946
0.00013248
0.000135157
0.000136938
0.000137852
0.000137825
0.000136834
0.000134925
0.000132062
0.000128225
0.000123428
0.000117682
0.000110972
0.000103311
9.47292e-05
8.52381e-05
7.48134e-05
6.34607e-05
5.12091e-05
3.80821e-05
2.40819e-05
9.22954e-06
-6.44424e-06
-2.29327e-05
-4.02277e-05
-5.83138e-05
-7.71465e-05
-9.67068e-05
-0.000116993
-0.000137988
-0.00015966
-0.000181972
-0.000204909
-0.000228471
-0.000252635
-0.000277369
-0.000302655
-0.000328478
-0.000354808
-0.00038161
-0.000408856
-0.000436527
-0.000464604
-0.000493069
-0.000521898
-0.000551067
-0.000580559
-0.000610355
-0.000640422
-0.00067073
-0.000701255
-0.000731985
-0.000762908
-0.000794003
-0.000825238
-0.00085659
-0.000888038
-0.000919563
-0.00095114
-0.00098274
-0.00101434
-0.00104593
-0.00107748
-0.00110898
-0.00114041
-0.00117174
-0.00120295
-0.00123402
-0.00126493
-0.00129564
-0.00132612
-0.00135636
-0.00138633
-0.00141602
-0.00144543
-0.00147453
-0.00150327
-0.00153164
-0.00155961
-0.00158715
-0.00161427
-0.00164093
-0.0016671
-0.00169276
-0.00171787
-0.00174242
-0.00176641
-0.0017898
-0.00181257
-0.00183471
-0.00185617
-0.00187694
-0.001897
-0.00191633
-0.00193492
-0.00195274
-0.00196977
-0.00198599
-0.00200139
-0.00201593
-0.00202961
-0.00204241
-0.00205432
-0.00206531
-0.00207538
-0.00208452
-0.00209272
-0.00209996
-0.00210623
-0.00211153
-0.00211585
-0.00211921
-0.00212159
-0.00212299
-0.00212343
-0.00212291
-0.00212144
-0.00211906
-0.00211578
-0.00211162
-0.00210662
-0.00210081
-0.00209426
-0.00208701
-0.00207913
-0.0020707
-0.00206178
-0.00205248
-0.00204292
-0.00203322
-0.00202354
-0.00201404
-0.00200491
-0.0019964
-0.00198876
-0.00198228
-0.00197725
-0.00197398
-0.00197272
-0.00197321
9.33702e-06
7.96213e-06
7.48062e-06
8.82273e-06
1.18561e-05
1.63778e-05
2.1987e-05
2.85018e-05
3.56149e-05
4.31564e-05
5.08767e-05
5.8679e-05
6.64201e-05
7.39421e-05
8.11873e-05
8.80039e-05
9.43049e-05
0.000100077
0.000105226
0.000109694
0.000113456
0.000116441
0.000118602
0.000119957
0.000120477
0.0001201
0.000118834
0.000116673
0.000113587
0.000109586
0.000104682
9.88591e-05
9.20968e-05
8.4416e-05
7.58493e-05
6.63892e-05
5.60306e-05
4.48007e-05
3.27132e-05
1.97529e-05
5.93291e-06
-8.70707e-06
-2.41431e-05
-4.03727e-05
-5.73876e-05
-7.51603e-05
-9.36597e-05
-0.000112873
-0.0001328
-0.000153424
-0.000174709
-0.000196629
-0.000219173
-0.000242321
-0.000266041
-0.000290312
-0.00031513
-0.00034048
-0.000366327
-0.000392637
-0.000419384
-0.00044656
-0.000474145
-0.00050211
-0.000530425
-0.000559067
-0.000588022
-0.000617276
-0.000646799
-0.000676563
-0.00070655
-0.000736744
-0.000767127
-0.000797671
-0.000828347
-0.000859138
-0.000890026
-0.000920992
-0.000952013
-0.00098306
-0.00101411
-0.00104514
-0.00107614
-0.00110709
-0.00113796
-0.00116873
-0.00119937
-0.00122988
-0.00126023
-0.00129039
-0.00132034
-0.00135005
-0.00137949
-0.00140865
-0.00143751
-0.00146606
-0.00149428
-0.00152214
-0.00154961
-0.00157667
-0.00160329
-0.00162944
-0.00165512
-0.0016803
-0.00170496
-0.00172907
-0.00175261
-0.00177556
-0.00179791
-0.00181964
-0.00184072
-0.00186112
-0.00188083
-0.00189982
-0.00191808
-0.00193558
-0.00195232
-0.00196827
-0.00198342
-0.00199775
-0.00201124
-0.00202388
-0.00203565
-0.00204653
-0.00205651
-0.00206559
-0.00207376
-0.00208102
-0.00208734
-0.00209273
-0.00209719
-0.00210071
-0.0021033
-0.00210496
-0.00210569
-0.00210552
-0.00210445
-0.00210252
-0.00209974
-0.00209614
-0.00209176
-0.00208664
-0.00208081
-0.00207433
-0.00206729
-0.00205974
-0.00205178
-0.00204348
-0.00203497
-0.00202637
-0.00201781
-0.00200945
-0.00200146
-0.00199404
-0.0019874
-0.00198178
-0.0019774
-0.00197445
-0.00197322
-0.0019737
6.85105e-06
5.37728e-06
5.34797e-06
6.86133e-06
9.70969e-06
1.37329e-05
1.87624e-05
2.45276e-05
3.09055e-05
3.76294e-05
4.45782e-05
5.15947e-05
5.8526e-05
6.53053e-05
7.18196e-05
7.79511e-05
8.36433e-05
8.88152e-05
9.33774e-05
9.73345e-05
0.000100613
0.000103147
0.000104923
0.00010592
0.000106077
0.000105409
0.000103906
0.000101518
9.82369e-05
9.40936e-05
8.90858e-05
8.31801e-05
7.63781e-05
6.86953e-05
6.01348e-05
5.06849e-05
4.03765e-05
2.92426e-05
1.72721e-05
4.44577e-06
-9.21179e-06
-2.36668e-05
-3.89138e-05
-5.49398e-05
-7.17263e-05
-8.92455e-05
-0.000107482
-0.000126429
-0.000146071
-0.000166376
-0.000187325
-0.00020891
-0.000231116
-0.000253914
-0.000277272
-0.000301173
-0.000325614
-0.000350574
-0.000376021
-0.000401923
-0.000428259
-0.000455015
-0.000482171
-0.000509698
-0.000537571
-0.000565774
-0.000594295
-0.000623108
-0.00065218
-0.000681487
-0.000711017
-0.000740753
-0.000770674
-0.000800756
-0.000830973
-0.000861304
-0.000891729
-0.000922225
-0.00095277
-0.00098334
-0.00101391
-0.00104447
-0.00107501
-0.0011055
-0.0011359
-0.00116621
-0.0011964
-0.00122643
-0.00125631
-0.00128599
-0.00131548
-0.00134473
-0.00137373
-0.00140245
-0.00143088
-0.00145899
-0.00148675
-0.00151416
-0.0015412
-0.00156784
-0.00159405
-0.00161981
-0.00164508
-0.00166986
-0.00169413
-0.00171787
-0.00174105
-0.00176365
-0.00178565
-0.00180704
-0.00182779
-0.00184788
-0.0018673
-0.00188601
-0.00190401
-0.00192126
-0.00193776
-0.00195349
-0.00196844
-0.00198259
-0.00199592
-0.00200842
-0.00202008
-0.00203087
-0.0020408
-0.00204984
-0.002058
-0.00206527
-0.00207164
-0.00207711
-0.00208168
-0.00208534
-0.00208811
-0.00208998
-0.00209098
-0.0020911
-0.00209038
-0.00208882
-0.00208644
-0.00208329
-0.0020794
-0.00207482
-0.00206958
-0.00206374
-0.00205736
-0.00205051
-0.00204328
-0.00203576
-0.00202805
-0.00202025
-0.00201251
-0.00200496
-0.00199777
-0.00199109
-0.00198511
-0.00198003
-0.00197601
-0.00197323
-0.00197199
-0.00197245
1.63655e-06
9.30375e-07
1.51736e-06
3.32361e-06
6.25883e-06
1.01672e-05
1.48387e-05
2.01989e-05
2.6027e-05
3.22066e-05
3.85801e-05
4.5013e-05
5.13792e-05
5.75744e-05
6.3496e-05
6.90845e-05
7.42636e-05
7.89281e-05
8.30486e-05
8.65614e-05
8.94061e-05
9.15772e-05
9.30281e-05
9.3711e-05
9.35926e-05
9.2684e-05
9.0953e-05
8.8372e-05
8.49394e-05
8.06666e-05
7.55371e-05
6.95416e-05
6.26966e-05
5.50086e-05
4.64471e-05
3.70227e-05
2.67671e-05
1.56943e-05
3.7966e-06
-8.92476e-06
-2.24433e-05
-3.67469e-05
-5.18332e-05
-6.76838e-05
-8.42656e-05
-0.00010156
-0.00011957
-0.000138292
-0.000157693
-0.000177735
-0.000198407
-0.000219709
-0.000241616
-0.000264096
-0.000287135
-0.000310721
-0.000334835
-0.000359453
-0.000384543
-0.000410085
-0.000436065
-0.000462461
-0.000489247
-0.000516393
-0.00054388
-0.000571696
-0.000599825
-0.000628242
-0.000656917
-0.000685829
-0.000714964
-0.000744303
-0.000773818
-0.000803488
-0.000833294
-0.000863219
-0.00089324
-0.00092333
-0.000953462
-0.000983616
-0.00101378
-0.00104392
-0.00107404
-0.0011041
-0.00113409
-0.00116399
-0.00119377
-0.00122341
-0.00125288
-0.00128216
-0.00131123
-0.00134006
-0.00136866
-0.00139699
-0.00142503
-0.00145276
-0.00148014
-0.00150717
-0.00153383
-0.00156009
-0.00158594
-0.00161134
-0.00163627
-0.0016607
-0.00168463
-0.00170804
-0.00173091
-0.00175321
-0.00177491
-0.00179601
-0.00181647
-0.0018363
-0.00185545
-0.00187392
-0.00189168
-0.00190873
-0.00192503
-0.00194059
-0.00195537
-0.00196937
-0.00198257
-0.00199495
-0.00200651
-0.00201724
-0.00202711
-0.00203613
-0.00204429
-0.00205158
-0.002058
-0.00206354
-0.00206821
-0.00207201
-0.00207493
-0.00207699
-0.00207821
-0.00207859
-0.00207816
-0.00207692
-0.00207491
-0.00207215
-0.00206867
-0.00206453
-0.00205977
-0.00205445
-0.00204861
-0.00204233
-0.00203569
-0.00202877
-0.00202167
-0.00201449
-0.00200735
-0.00200038
-0.00199372
-0.00198752
-0.00198194
-0.00197714
-0.00197327
-0.00197049
-0.00196907
-0.00196919
-4.96597e-06
-4.80642e-06
-3.55264e-06
-1.32995e-06
1.78766e-06
5.68307e-06
1.0245e-05
1.53265e-05
2.08109e-05
2.65745e-05
3.2465e-05
3.842e-05
4.4314e-05
5.00172e-05
5.54651e-05
6.05822e-05
6.5278e-05
6.95148e-05
7.32317e-05
7.63384e-05
7.88156e-05
8.06432e-05
8.17707e-05
8.21515e-05
8.1785e-05
8.06436e-05
7.86864e-05
7.59258e-05
7.23595e-05
6.79654e-05
6.27189e-05
5.6643e-05
4.97454e-05
4.20147e-05
3.34437e-05
2.40539e-05
1.38562e-05
2.83671e-06
-8.99607e-06
-2.16188e-05
-3.50172e-05
-4.91884e-05
-6.41294e-05
-7.98162e-05
-9.62115e-05
-0.000113307
-0.00013111
-0.000149607
-0.000168766
-0.000188563
-0.000208986
-0.000230025
-0.00025165
-0.000273831
-0.000296568
-0.000319853
-0.000343658
-0.000367952
-0.000392707
-0.000417908
-0.000443542
-0.000469586
-0.000496012
-0.000522796
-0.000549923
-0.000577378
-0.000605136
-0.00063317
-0.00066146
-0.000689993
-0.00071875
-0.000747708
-0.00077684
-0.000806122
-0.000835537
-0.000865067
-0.000894694
-0.000924389
-0.000954125
-0.000983881
-0.00101365
-0.00104341
-0.00107313
-0.00110279
-0.00113238
-0.00116187
-0.00119125
-0.0012205
-0.00124959
-0.00127848
-0.00130716
-0.00133562
-0.00136382
-0.00139177
-0.00141943
-0.00144678
-0.0014738
-0.00150048
-0.00152678
-0.00155269
-0.00157818
-0.00160324
-0.00162784
-0.00165195
-0.00167556
-0.00169866
-0.00172122
-0.00174323
-0.00176466
-0.00178548
-0.00180569
-0.00182526
-0.00184417
-0.00186241
-0.00187996
-0.0018968
-0.00191292
-0.0019283
-0.00194293
-0.0019568
-0.00196988
-0.00198216
-0.00199364
-0.00200429
-0.00201413
-0.00202312
-0.00203129
-0.0020386
-0.00204507
-0.00205069
-0.00205546
-0.00205938
-0.00206246
-0.00206471
-0.00206614
-0.00206676
-0.0020666
-0.00206566
-0.00206398
-0.00206158
-0.00205849
-0.00205475
-0.00205043
-0.00204557
-0.00204021
-0.00203443
-0.00202829
-0.00202188
-0.00201529
-0.00200862
-0.00200197
-0.00199546
-0.00198921
-0.00198334
-0.001978
-0.00197333
-0.00196946
-0.00196653
-0.00196474
-0.00196421
-1.26941e-05
-1.15205e-05
-9.56882e-06
-6.8807e-06
-3.50056e-06
5.31094e-07
5.05748e-06
1.00064e-05
1.52829e-05
2.07506e-05
2.6315e-05
3.18927e-05
3.73621e-05
4.26742e-05
4.77254e-05
5.24304e-05
5.67306e-05
6.05888e-05
6.39243e-05
6.66816e-05
6.88458e-05
7.03555e-05
7.11823e-05
7.13055e-05
7.07033e-05
6.93275e-05
6.71682e-05
6.4241e-05
6.05292e-05
5.60022e-05
5.06649e-05
4.45269e-05
3.75741e-05
2.97918e-05
2.12075e-05
1.1839e-05
1.67535e-06
-9.29696e-06
-2.10615e-05
-3.35923e-05
-4.68874e-05
-6.09437e-05
-7.57469e-05
-9.12695e-05
-0.000107496
-0.000124423
-0.000142043
-0.000160329
-0.000179258
-0.000198825
-0.000219016
-0.000239804
-0.000261162
-0.000283073
-0.000305531
-0.000328527
-0.000352036
-0.000376022
-0.000400464
-0.00042535
-0.000450662
-0.000476371
-0.00050245
-0.000528888
-0.000555673
-0.000582784
-0.000610189
-0.000637865
-0.000665797
-0.000693968
-0.000722362
-0.000750954
-0.000779719
-0.000808635
-0.000837683
-0.000866843
-0.000896095
-0.000925411
-0.000954766
-0.000984143
-0.00101353
-0.00104291
-0.00107226
-0.00110155
-0.00113076
-0.00115988
-0.00118888
-0.00121775
-0.00124645
-0.00127497
-0.00130329
-0.00133138
-0.00135923
-0.00138681
-0.00141411
-0.0014411
-0.00146777
-0.00149411
-0.00152008
-0.00154565
-0.00157082
-0.00159555
-0.00161983
-0.00164364
-0.00166696
-0.00168976
-0.00171204
-0.00173377
-0.00175493
-0.0017755
-0.00179546
-0.00181479
-0.00183348
-0.00185151
-0.00186886
-0.00188552
-0.00190146
-0.00191669
-0.00193118
-0.00194492
-0.00195789
-0.00197009
-0.00198149
-0.00199209
-0.00200189
-0.00201087
-0.00201904
-0.00202639
-0.00203291
-0.0020386
-0.00204347
-0.00204751
-0.00205075
-0.00205317
-0.00205481
-0.00205566
-0.00205574
-0.00205508
-0.00205369
-0.00205161
-0.00204888
-0.00204552
-0.00204158
-0.00203711
-0.00203218
-0.00202683
-0.00202113
-0.00201515
-0.00200898
-0.00200272
-0.00199645
-0.00199027
-0.0019843
-0.00197864
-0.00197341
-0.00196873
-0.00196472
-0.00196151
-0.00195918
-0.00195779
-2.13579e-05
-1.90879e-05
-1.63649e-05
-1.31744e-05
-9.41956e-06
-5.19088e-06
-5.78166e-07
4.36421e-06
9.51622e-06
1.48194e-05
2.01657e-05
2.54577e-05
3.06271e-05
3.56174e-05
4.03296e-05
4.47022e-05
4.86807e-05
5.21938e-05
5.51936e-05
5.7656e-05
5.95278e-05
6.07575e-05
6.13218e-05
6.12116e-05
6.03838e-05
5.87972e-05
5.64696e-05
5.33873e-05
4.95218e-05
4.4869e-05
3.94446e-05
3.32376e-05
2.62238e-05
1.84111e-05
9.82234e-06
4.55856e-07
-9.69403e-06
-2.06256e-05
-3.23238e-05
-4.47775e-05
-5.79878e-05
-7.19452e-05
-8.66207e-05
-0.000101992
-0.000118065
-0.000134836
-0.000152283
-0.000170379
-0.000189107
-0.000208465
-0.000228436
-0.000248986
-0.000270097
-0.000291761
-0.000313967
-0.000336695
-0.000359918
-0.000383613
-0.000407765
-0.000432357
-0.000457365
-0.000482762
-0.000508522
-0.00053464
-0.000561102
-0.000587882
-0.000614953
-0.000642294
-0.000669891
-0.000697728
-0.000725781
-0.000754026
-0.00078244
-0.000811008
-0.00083971
-0.000868522
-0.00089742
-0.000926379
-0.000955379
-0.000984403
-0.00101344
-0.00104246
-0.00107144
-0.00110037
-0.00112923
-0.00115799
-0.00118665
-0.00121516
-0.00124351
-0.00127167
-0.00129964
-0.00132738
-0.00135489
-0.00138214
-0.0014091
-0.00143576
-0.0014621
-0.00148811
-0.00151376
-0.00153903
-0.00156388
-0.00158831
-0.00161229
-0.00163581
-0.00165886
-0.00168139
-0.00170341
-0.00172488
-0.00174579
-0.00176612
-0.00178585
-0.00180497
-0.00182346
-0.00184129
-0.00185846
-0.00187494
-0.00189074
-0.00190582
-0.00192019
-0.00193381
-0.00194668
-0.0019588
-0.00197014
-0.0019807
-0.00199047
-0.00199944
-0.00200762
-0.00201501
-0.00202158
-0.00202735
-0.00203232
-0.00203648
-0.00203985
-0.00204244
-0.00204426
-0.00204532
-0.00204564
-0.00204522
-0.00204411
-0.00204232
-0.00203989
-0.00203686
-0.00203326
-0.00202915
-0.00202457
-0.00201958
-0.00201423
-0.00200861
-0.00200278
-0.00199683
-0.00199084
-0.0019849
-0.00197909
-0.00197352
-0.00196829
-0.00196348
-0.00195922
-0.00195561
-0.00195263
-0.00195022
-3.06815e-05
-2.72924e-05
-2.37847e-05
-2.00061e-05
-1.58424e-05
-1.13158e-05
-6.50748e-06
-1.52004e-06
3.62197e-06
8.83861e-06
1.40428e-05
1.91477e-05
2.41093e-05
2.88364e-05
3.3279e-05
3.73936e-05
4.10915e-05
4.432e-05
4.70521e-05
4.92461e-05
5.08467e-05
5.18341e-05
5.21769e-05
5.18397e-05
5.07929e-05
4.90299e-05
4.65477e-05
4.33149e-05
3.9312e-05
3.45572e-05
2.90427e-05
2.27483e-05
1.56742e-05
7.83942e-06
-7.56516e-07
-1.01281e-05
-2.02713e-05
-3.11679e-05
-4.28105e-05
-5.52028e-05
-6.83386e-05
-8.22012e-05
-9.67597e-05
-0.000112009
-0.00012795
-0.000144573
-0.000161853
-0.000179773
-0.000198325
-0.000217496
-0.000237258
-0.000257586
-0.000278471
-0.000299907
-0.000321878
-0.000344358
-0.000367318
-0.000390745
-0.000414627
-0.000438942
-0.000463663
-0.000488765
-0.000514232
-0.000540057
-0.000566217
-0.000592685
-0.000619439
-0.000646467
-0.000673751
-0.000701272
-0.000729004
-0.000756925
-0.000785012
-0.000813252
-0.000841626
-0.000870107
-0.000898669
-0.000927291
-0.000955956
-0.000984649
-0.00101335
-0.00104204
-0.00107068
-0.00109927
-0.00112779
-0.00115622
-0.00118454
-0.00121272
-0.00124073
-0.00126857
-0.00129621
-0.00132363
-0.00135081
-0.00137774
-0.00140439
-0.00143074
-0.00145678
-0.00148248
-0.00150783
-0.0015328
-0.00155737
-0.00158152
-0.00160523
-0.00162848
-0.00165126
-0.00167354
-0.00169531
-0.00171655
-0.00173723
-0.00175734
-0.00177687
-0.00179578
-0.00181408
-0.00183173
-0.00184873
-0.00186506
-0.00188071
-0.00189567
-0.00190992
-0.00192345
-0.00193624
-0.00194828
-0.00195957
-0.00197009
-0.00197984
-0.00198882
-0.00199702
-0.00200443
-0.00201107
-0.00201691
-0.00202197
-0.00202625
-0.00202976
-0.0020325
-0.00203448
-0.00203573
-0.00203626
-0.00203607
-0.0020352
-0.00203367
-0.00203151
-0.00202876
-0.00202546
-0.00202164
-0.00201736
-0.00201267
-0.00200762
-0.00200228
-0.00199672
-0.001991
-0.00198519
-0.00197938
-0.00197365
-0.00196807
-0.00196273
-0.00195772
-0.00195311
-0.00194901
-0.00194528
-0.00194179
-4.04853e-05
-3.59694e-05
-3.16224e-05
-2.72552e-05
-2.26057e-05
-1.77252e-05
-1.26813e-05
-7.52782e-06
-2.32105e-06
2.86799e-06
7.999e-06
1.30073e-05
1.78141e-05
2.2358e-05
2.6608e-05
3.04927e-05
3.39481e-05
3.69566e-05
3.94622e-05
4.14139e-05
4.27891e-05
4.35648e-05
4.37058e-05
4.31601e-05
4.19277e-05
4.00069e-05
3.73676e-05
3.3987e-05
2.98729e-05
2.50253e-05
1.94175e-05
1.30426e-05
5.91891e-06
-1.94519e-06
-1.05622e-05
-1.99424e-05
-3.00766e-05
-4.09437e-05
-5.25485e-05
-6.48946e-05
-7.79641e-05
-9.17328e-05
-0.000106186
-0.000121333
-0.000137162
-0.000153647
-0.000170775
-0.00018854
-0.00020693
-0.000225924
-0.000245494
-0.000265621
-0.000286301
-0.000307527
-0.000329278
-0.000351525
-0.000374245
-0.00039743
-0.000421063
-0.000445117
-0.000469566
-0.000494394
-0.000519592
-0.000545144
-0.000571021
-0.000597199
-0.000623661
-0.000650396
-0.000677385
-0.000704606
-0.000732034
-0.00075965
-0.000787433
-0.000815368
-0.000843433
-0.000871602
-0.000899847
-0.000928153
-0.000956505
-0.000984885
-0.00101327
-0.00104164
-0.00106997
-0.00109824
-0.00112645
-0.00115456
-0.00118257
-0.00121043
-0.00123813
-0.00126566
-0.001293
-0.00132012
-0.001347
-0.00137362
-0.00139997
-0.00142604
-0.00145179
-0.00147721
-0.00150229
-0.00152698
-0.00155128
-0.00157517
-0.00159862
-0.00162163
-0.00164416
-0.0016662
-0.00168775
-0.00170876
-0.00172923
-0.00174914
-0.00176847
-0.00178721
-0.00180533
-0.00182282
-0.00183967
-0.00185586
-0.00187139
-0.00188623
-0.00190038
-0.00191381
-0.00192653
-0.00193852
-0.00194976
-0.00196025
-0.00196999
-0.00197897
-0.00198719
-0.00199465
-0.00200134
-0.00200726
-0.00201241
-0.0020168
-0.00202043
-0.00202331
-0.00202545
-0.00202687
-0.00202758
-0.0020276
-0.00202694
-0.00202564
-0.00202372
-0.00202121
-0.00201816
-0.0020146
-0.00201057
-0.00200612
-0.00200131
-0.00199619
-0.00199081
-0.00198525
-0.00197956
-0.0019738
-0.00196806
-0.00196239
-0.00195687
-0.00195156
-0.00194654
-0.00194188
-0.00193736
-0.00193273
-5.06085e-05
-4.49377e-05
-3.9773e-05
-3.47675e-05
-2.95901e-05
-2.43131e-05
-1.89749e-05
-1.3599e-05
-8.26829e-06
-3.02437e-06
2.10671e-06
7.05247e-06
1.1763e-05
1.62013e-05
2.03011e-05
2.40017e-05
2.72756e-05
3.00979e-05
3.24041e-05
3.41577e-05
3.53487e-05
3.59331e-05
3.58758e-05
3.51539e-05
3.37737e-05
3.1701e-05
2.89097e-05
2.5405e-05
2.11901e-05
1.62409e-05
1.0543e-05
4.10536e-06
-3.06011e-06
-1.09645e-05
-1.96126e-05
-2.90035e-05
-3.91275e-05
-4.99761e-05
-6.15584e-05
-7.38652e-05
-8.6872e-05
-0.00010056
-0.00011493
-0.000129984
-0.000145706
-0.000162068
-0.000179062
-0.000196691
-0.000214933
-0.000233759
-0.000253151
-0.0002731
-0.000293599
-0.000314631
-0.000336174
-0.000358203
-0.000380705
-0.000403669
-0.000427072
-0.000450883
-0.000475084
-0.000499664
-0.00052461
-0.000549902
-0.000575515
-0.000601425
-0.000627618
-0.000654082
-0.000680796
-0.000707736
-0.000734878
-0.000762207
-0.000789705
-0.000817354
-0.000845128
-0.000873002
-0.000900953
-0.000928967
-0.000957027
-0.000985112
-0.0010132
-0.00104127
-0.0010693
-0.00109729
-0.0011252
-0.00115302
-0.00118073
-0.0012083
-0.00123571
-0.00126295
-0.00129
-0.00131684
-0.00134344
-0.00136979
-0.00139586
-0.00142166
-0.00144714
-0.00147231
-0.00149712
-0.00152156
-0.00154561
-0.00156925
-0.00159247
-0.00161524
-0.00163755
-0.00165938
-0.00168071
-0.00170152
-0.0017218
-0.00174152
-0.00176068
-0.00177925
-0.00179721
-0.00181455
-0.00183126
-0.00184733
-0.00186274
-0.00187748
-0.00189154
-0.0019049
-0.00191756
-0.0019295
-0.00194071
-0.00195118
-0.00196091
-0.0019699
-0.00197815
-0.00198564
-0.00199239
-0.00199838
-0.00200362
-0.0020081
-0.00201185
-0.00201486
-0.00201714
-0.00201871
-0.00201959
-0.00201979
-0.00201933
-0.00201822
-0.00201651
-0.00201421
-0.00201137
-0.00200801
-0.00200419
-0.00199995
-0.00199531
-0.00199035
-0.0019851
-0.00197963
-0.00197398
-0.00196821
-0.00196239
-0.00195657
-0.0019508
-0.00194513
-0.00193964
-0.00193439
-0.00192905
-0.00192328
-6.0876e-05
-5.40832e-05
-4.80494e-05
-4.23949e-05
-3.66792e-05
-3.09496e-05
-2.5263e-05
-1.96553e-05
-1.41492e-05
-8.7841e-06
-3.60911e-06
1.32841e-06
6.00813e-06
1.03675e-05
1.4357e-05
1.79398e-05
2.10829e-05
2.37388e-05
2.5877e-05
2.74797e-05
2.85035e-05
2.89186e-05
2.86883e-05
2.78209e-05
2.62986e-05
2.40818e-05
2.11678e-05
1.75608e-05
1.32416e-05
8.18913e-06
2.41149e-06
-4.07872e-06
-1.12897e-05
-1.92397e-05
-2.792e-05
-3.73216e-05
-4.74422e-05
-5.82871e-05
-6.98537e-05
-8.21223e-05
-9.50712e-05
-0.000108695
-0.000123002
-0.000137972
-0.000153591
-0.000169845
-0.000186729
-0.000204234
-0.000222337
-0.00024101
-0.000260243
-0.000280033
-0.000300367
-0.000321221
-0.000342572
-0.000364406
-0.000386712
-0.000409471
-0.000432657
-0.000456245
-0.000480221
-0.000504576
-0.00052929
-0.000554341
-0.000579707
-0.000605369
-0.000631314
-0.000657527
-0.000683985
-0.000710662
-0.000737539
-0.000764603
-0.000791836
-0.000819217
-0.000846716
-0.000874313
-0.00090199
-0.000929733
-0.000957522
-0.000985331
-0.00101314
-0.00104094
-0.00106869
-0.0010964
-0.00112404
-0.00115159
-0.00117903
-0.00120632
-0.00123347
-0.00126044
-0.00128723
-0.0013138
-0.00134014
-0.00136623
-0.00139206
-0.0014176
-0.00144284
-0.00146775
-0.00149233
-0.00151654
-0.00154036
-0.00156377
-0.00158677
-0.00160933
-0.00163143
-0.00165306
-0.00167419
-0.00169482
-0.00171492
-0.00173448
-0.00175347
-0.00177189
-0.0017897
-0.00180691
-0.0018235
-0.00183946
-0.00185477
-0.00186942
-0.0018834
-0.0018967
-0.0019093
-0.0019212
-0.00193239
-0.00194285
-0.00195258
-0.00196158
-0.00196985
-0.00197739
-0.00198419
-0.00199026
-0.00199557
-0.00200015
-0.002004
-0.00200713
-0.00200954
-0.00201126
-0.00201228
-0.00201264
-0.00201234
-0.00201141
-0.00200987
-0.00200776
-0.00200509
-0.00200191
-0.00199825
-0.00199415
-0.00198965
-0.0019848
-0.00197962
-0.00197418
-0.00196852
-0.00196269
-0.00195673
-0.0019507
-0.00194463
-0.00193856
-0.00193257
-0.0019267
-0.00192052
-0.00191363
-7.11208e-05
-6.3207e-05
-5.63283e-05
-5.00368e-05
-4.37526e-05
-3.75565e-05
-3.15026e-05
-2.56129e-05
-1.98805e-05
-1.4368e-05
-9.10071e-06
-4.1037e-06
5.75186e-07
4.88374e-06
8.8088e-06
1.23131e-05
1.53481e-05
1.78818e-05
1.98951e-05
2.13699e-05
2.22432e-05
2.25065e-05
2.21473e-05
2.11526e-05
1.94872e-05
1.71434e-05
1.4129e-05
1.04232e-05
6.0002e-06
8.61118e-07
-4.98247e-06
-1.15282e-05
-1.87939e-05
-2.67867e-05
-3.54949e-05
-4.49103e-05
-5.50415e-05
-6.58935e-05
-7.7445e-05
-8.96756e-05
-0.00010258
-0.00011616
-0.000130409
-0.000145304
-0.000160834
-0.000176996
-0.000193784
-0.000211175
-0.000229149
-0.000247686
-0.000266781
-0.000286428
-0.000306611
-0.000327301
-0.00034848
-0.00037014
-0.000392269
-0.00041484
-0.000437825
-0.000461208
-0.000484982
-0.000509131
-0.000533632
-0.000558461
-0.0005836
-0.000609037
-0.000634755
-0.000660734
-0.00068695
-0.000713383
-0.000740017
-0.000766835
-0.000793822
-0.000820952
-0.000848196
-0.000875538
-0.000902963
-0.000930453
-0.000957986
-0.00098554
-0.0010131
-0.00104064
-0.00106814
-0.00109559
-0.00112298
-0.00115028
-0.00117746
-0.0012045
-0.0012314
-0.00125813
-0.00128467
-0.001311
-0.0013371
-0.00136295
-0.00138854
-0.00141386
-0.00143887
-0.00146356
-0.00148791
-0.0015119
-0.00153551
-0.00155872
-0.00158152
-0.00160388
-0.00162579
-0.00164723
-0.00166819
-0.00168865
-0.00170859
-0.00172799
-0.00174684
-0.00176512
-0.00178281
-0.0017999
-0.00181638
-0.00183224
-0.00184746
-0.00186204
-0.00187596
-0.0018892
-0.00190176
-0.00191363
-0.0019248
-0.00193525
-0.00194499
-0.00195401
-0.00196231
-0.00196988
-0.00197674
-0.00198286
-0.00198826
-0.00199292
-0.00199687
-0.0020001
-0.00200264
-0.00200448
-0.00200564
-0.00200614
-0.00200599
-0.0020052
-0.00200382
-0.00200185
-0.00199933
-0.00199629
-0.00199275
-0.00198876
-0.00198435
-0.00197955
-0.00197441
-0.00196895
-0.00196323
-0.00195729
-0.00195115
-0.00194486
-0.00193846
-0.00193196
-0.00192544
-0.00191894
-0.00191193
-0.00190393
-8.12416e-05
-7.22214e-05
-6.45144e-05
-5.75636e-05
-5.07101e-05
-4.40497e-05
-3.75943e-05
-3.13774e-05
-2.54109e-05
-1.97203e-05
-1.43137e-05
-9.2296e-06
-4.52676e-06
-2.16249e-07
3.68866e-06
7.13366e-06
1.00913e-05
1.25418e-05
1.4462e-05
1.58082e-05
1.65611e-05
1.67067e-05
1.62383e-05
1.51221e-05
1.33402e-05
1.08979e-05
7.7855e-06
3.97531e-06
-5.41151e-07
-5.74983e-06
-1.1652e-05
-1.82614e-05
-2.55857e-05
-3.36166e-05
-4.23511e-05
-5.17907e-05
-6.19435e-05
-7.28012e-05
-8.43384e-05
-9.6541e-05
-0.000109415
-0.00012296
-0.000137157
-0.000151987
-0.000167445
-0.000183532
-0.000200233
-0.000217521
-0.000235378
-0.000253797
-0.000272774
-0.000292295
-0.000312335
-0.000332876
-0.000353905
-0.000375412
-0.000397379
-0.000419774
-0.000442578
-0.000465783
-0.000489374
-0.000513331
-0.000537634
-0.000562261
-0.000587197
-0.000612427
-0.000637937
-0.000663701
-0.000689696
-0.000715904
-0.000742313
-0.000768907
-0.000795662
-0.000822558
-0.000849568
-0.000876676
-0.000903869
-0.000931126
-0.000958423
-0.00098574
-0.00101306
-0.00104036
-0.00106764
-0.00109486
-0.00112202
-0.00114908
-0.00117602
-0.00120284
-0.00122951
-0.00125601
-0.00128233
-0.00130843
-0.00133431
-0.00135995
-0.00138532
-0.00141042
-0.00143523
-0.00145971
-0.00148386
-0.00150765
-0.00153107
-0.00155409
-0.00157671
-0.00159889
-0.00162063
-0.0016419
-0.0016627
-0.00168301
-0.0017028
-0.00172207
-0.00174078
-0.00175893
-0.00177651
-0.0017935
-0.00180989
-0.00182566
-0.00184081
-0.00185533
-0.00186919
-0.00188239
-0.00189492
-0.00190677
-0.00191792
-0.00192837
-0.00193811
-0.00194715
-0.00195548
-0.0019631
-0.00197
-0.00197619
-0.00198165
-0.0019864
-0.00199044
-0.00199378
-0.00199642
-0.00199837
-0.00199965
-0.00200027
-0.00200025
-0.00199959
-0.00199833
-0.00199649
-0.00199409
-0.00199115
-0.00198771
-0.00198379
-0.00197943
-0.00197465
-0.00196949
-0.00196399
-0.00195817
-0.00195207
-0.00194572
-0.00193915
-0.00193238
-0.00192544
-0.00191838
-0.00191124
-0.00190341
-0.00189434
-9.10845e-05
-8.10351e-05
-7.24874e-05
-6.4878e-05
-5.74853e-05
-5.03349e-05
-4.34668e-05
-3.6916e-05
-3.06815e-05
-2.47709e-05
-1.921e-05
-1.40329e-05
-9.25347e-06
-4.906e-06
-1.00382e-06
2.40628e-06
5.3292e-06
7.72912e-06
9.56744e-06
1.08117e-05
1.14703e-05
1.15247e-05
1.09493e-05
9.72164e-06
7.85158e-06
5.32626e-06
2.11403e-06
-1.79317e-06
-6.38381e-06
-1.16563e-05
-1.7621e-05
-2.42942e-05
-3.16712e-05
-3.97387e-05
-4.85043e-05
-5.79798e-05
-6.81582e-05
-7.90169e-05
-9.05424e-05
-0.000102734
-0.000115593
-0.000129105
-0.000143253
-0.000158032
-0.000173436
-0.00018946
-0.00020608
-0.000223274
-0.000241034
-0.000259356
-0.000278231
-0.000297636
-0.000317548
-0.000337958
-0.000358858
-0.000380227
-0.000402044
-0.000424282
-0.000446926
-0.00046997
-0.000493397
-0.000517182
-0.000541305
-0.000565749
-0.0005905
-0.000615544
-0.000640861
-0.000666427
-0.000692218
-0.000718224
-0.000744431
-0.000770818
-0.000797361
-0.000824039
-0.000850833
-0.000877728
-0.000904709
-0.000931752
-0.000958833
-0.000985932
-0.00101303
-0.00104013
-0.00106719
-0.0010942
-0.00112114
-0.00114799
-0.00117472
-0.00120133
-0.00122779
-0.00125409
-0.00128019
-0.00130609
-0.00133177
-0.00135721
-0.00138239
-0.0014073
-0.00143191
-0.0014562
-0.00148017
-0.00150378
-0.00152702
-0.00154988
-0.00157233
-0.00159435
-0.00161593
-0.00163706
-0.00165771
-0.00167788
-0.00169754
-0.00171668
-0.00173528
-0.00175333
-0.00177081
-0.0017877
-0.00180401
-0.00181972
-0.00183481
-0.00184927
-0.00186309
-0.00187625
-0.00188876
-0.00190059
-0.00191173
-0.00192218
-0.00193194
-0.001941
-0.00194936
-0.00195702
-0.00196397
-0.00197021
-0.00197575
-0.00198057
-0.0019847
-0.00198813
-0.00199086
-0.00199292
-0.0019943
-0.00199503
-0.00199512
-0.00199458
-0.00199343
-0.00199168
-0.00198937
-0.00198651
-0.00198313
-0.00197925
-0.0019749
-0.00197011
-0.00196491
-0.00195933
-0.00195338
-0.00194709
-0.0019405
-0.00193362
-0.00192648
-0.00191907
-0.00191147
-0.0019037
-0.00189507
-0.00188496
-0.000100548
-8.95158e-05
-8.0173e-05
-7.19314e-05
-6.39707e-05
-5.63294e-05
-4.90577e-05
-4.21582e-05
-3.56207e-05
-2.94824e-05
-2.37562e-05
-1.84504e-05
-1.35695e-05
-9.16294e-06
-5.24089e-06
-1.82517e-06
1.07952e-06
3.43396e-06
5.20161e-06
6.38965e-06
6.97841e-06
6.94965e-06
6.28064e-06
4.97265e-06
3.02512e-06
4.0977e-07
-2.89512e-06
-6.87882e-06
-1.15316e-05
-1.68705e-05
-2.29061e-05
-2.96373e-05
-3.70562e-05
-4.51653e-05
-5.39769e-05
-6.34919e-05
-7.36872e-05
-8.45493e-05
-9.60756e-05
-0.000108267
-0.000121114
-0.000134599
-0.000148712
-0.000163455
-0.000178818
-0.000194785
-0.000211335
-0.00022845
-0.00024613
-0.00026437
-0.000283154
-0.000302457
-0.00032226
-0.000342559
-0.000363345
-0.000384589
-0.00040627
-0.00042837
-0.000450876
-0.000473777
-0.000497055
-0.000520683
-0.000544643
-0.000568924
-0.000593511
-0.000618387
-0.000643528
-0.000668912
-0.000694521
-0.000720343
-0.000746366
-0.000772565
-0.000798915
-0.000825397
-0.000851996
-0.000878698
-0.000905483
-0.000932329
-0.000959212
-0.000986115
-0.00101302
-0.00103992
-0.00106679
-0.00109361
-0.00112035
-0.001147
-0.00117355
-0.00119996
-0.00122624
-0.00125235
-0.00127827
-0.00130398
-0.00132948
-0.00135474
-0.00137974
-0.00140447
-0.0014289
-0.00145303
-0.00147683
-0.00150028
-0.00152337
-0.00154607
-0.00156837
-0.00159025
-0.00161169
-0.00163268
-0.00165321
-0.00167326
-0.00169281
-0.00171184
-0.00173033
-0.00174829
-0.00176568
-0.00178251
-0.00179875
-0.0018144
-0.00182944
-0.00184385
-0.00185764
-0.00187078
-0.00188326
-0.00189508
-0.00190622
-0.00191669
-0.00192646
-0.00193555
-0.00194394
-0.00195164
-0.00195863
-0.00196493
-0.00197053
-0.00197543
-0.00197964
-0.00198315
-0.00198597
-0.00198812
-0.0019896
-0.00199043
-0.00199061
-0.00199016
-0.00198909
-0.00198743
-0.00198518
-0.00198237
-0.00197902
-0.00197516
-0.0019708
-0.00196598
-0.0019607
-0.001955
-0.0019489
-0.00194241
-0.00193556
-0.00192836
-0.00192082
-0.00191295
-0.00190481
-0.00189641
-0.00188701