/*--------------------------------*- C++ -*----------------------------------*\
  =========                 |
  \\      /  F ield         | OpenFOAM: The Open Source CFD Toolbox
   \\    /   O peration     | Website:  https://openfoam.org
    \\  /    A nd           | Version:  7
     \\/     M anipulation  |
\*---------------------------------------------------------------------------*/
FoamFile
{
    version     2.0;
    format      ascii;
    class       volScalarField;
    location    "0.1375";
    object      p;
}
// * * * * * * * * * * * * * * * * * * * * * * * * * * * * * * * * * * * * * //

dimensions      [0 2 -2 0 0 0 0];

internalField   nonuniform List<scalar> 
12800
(
1.28655e-08
2.20789e-05
-2.48155e-05
-0.000150023
-0.000343442
-0.000593245
-0.000887059
-0.00121308
-0.00156081
-0.00192118
-0.00228649
-0.00265035
-0.00300742
-0.00335333
-0.00368453
-0.00399823
-0.00429225
-0.00456495
-0.00481515
-0.00504202
-0.00524506
-0.00542405
-0.00557896
-0.00570992
-0.00581722
-0.00590122
-0.0059623
-0.0060009
-0.00601751
-0.00601263
-0.00598675
-0.00594035
-0.0058739
-0.00578781
-0.00568245
-0.00555817
-0.0054153
-0.00525408
-0.00507469
-0.00487728
-0.00466198
-0.00442889
-0.00417802
-0.00390936
-0.00362287
-0.00331845
-0.00299597
-0.00265528
-0.0022962
-0.00191856
-0.00152211
-0.00110657
-0.000671626
-0.00021695
0.000257813
0.000753058
0.00126922
0.00180677
0.00236619
0.002948
0.00355275
0.00418102
0.00483338
0.00551044
0.00621284
0.0069413
0.00769658
0.00847947
0.00929079
0.0101314
0.0110022
0.0119042
0.0128384
0.0138057
0.0148071
0.0158438
0.0169168
0.0180273
0.0191765
0.0203654
0.0215952
0.0228672
0.0241826
0.0255426
0.0269484
0.0284012
0.0299021
0.0314522
0.0330528
0.0347047
0.036409
0.0381664
0.0399779
0.0418442
0.0437656
0.0457428
0.0477758
0.0498648
0.0520096
0.0542098
0.0564647
0.0587735
0.061135
0.0635477
0.0660096
0.0685188
0.0710724
0.0736676
0.076301
0.0789689
0.0816669
0.0843904
0.0871343
0.0898929
0.0926601
0.0954295
0.098194
0.100946
0.103679
0.106383
0.109051
0.111674
0.114243
0.116749
0.119183
0.121536
0.123798
0.125962
0.128018
0.129958
0.131775
0.133462
0.135011
0.136419
0.137679
0.138788
0.139743
0.140542
0.141186
0.141674
0.14201
0.142196
0.142238
0.142142
0.141916
0.141569
0.141113
0.140559
0.139922
0.139219
0.138466
0.137685
0.136898
0.13613
0.135411
0.134773
0.134251
0.133882
0.133706
0.133716
-2.20038e-05
1.12726e-06
-4.44081e-05
-0.000156813
-0.000325371
-0.000541772
-0.000796994
-0.00108177
-0.00138747
-0.00170638
-0.00203175
-0.0023578
-0.00267958
-0.00299294
-0.00329443
-0.00358127
-0.00385125
-0.00410266
-0.00433417
-0.00454482
-0.00473395
-0.00490114
-0.00504619
-0.00516905
-0.00526983
-0.00534872
-0.005406
-0.00544195
-0.00545691
-0.00545123
-0.00542529
-0.00537946
-0.00531412
-0.0052296
-0.00512618
-0.00500413
-0.0048637
-0.00470508
-0.0045284
-0.00433378
-0.0041213
-0.003891
-0.00364288
-0.0033769
-0.00309299
-0.00279105
-0.00247091
-0.0021324
-0.00177534
-0.00139951
-0.00100469
-0.000590579
-0.000156869
0.000296778
0.000770739
0.00126543
0.00178127
0.00231873
0.00287829
0.00346046
0.0040658
0.00469487
0.00534824
0.00602651
0.00673031
0.00746036
0.00821737
0.00900212
0.00981542
0.0106581
0.0115311
0.0124352
0.0133715
0.0143408
0.0153443
0.0163828
0.0174574
0.0185693
0.0197194
0.0209089
0.0221389
0.0234105
0.0247248
0.026083
0.0274862
0.0289354
0.0304318
0.0319763
0.03357
0.0352137
0.0369083
0.0386546
0.0404532
0.0423047
0.0442096
0.046168
0.0481802
0.050246
0.0523653
0.0545375
0.0567619
0.0590374
0.061363
0.0637368
0.0661572
0.0686217
0.071128
0.0736729
0.0762532
0.078865
0.0815043
0.0841665
0.0868466
0.0895391
0.0922382
0.0949376
0.0976306
0.10031
0.102969
0.105599
0.108193
0.110742
0.113238
0.115672
0.118036
0.120321
0.122519
0.124622
0.126621
0.12851
0.13028
0.131926
0.133442
0.134823
0.136063
0.137161
0.138113
0.138919
0.139577
0.14009
0.140459
0.140689
0.140783
0.140749
0.140594
0.140328
0.13996
0.139503
0.138971
0.138378
0.137742
0.137081
0.136415
0.135768
0.135163
0.134628
0.13419
0.133874
0.133716
0.133727
2.60545e-05
4.86072e-05
3.01366e-06
-0.000103144
-0.00025795
-0.000454425
-0.000685238
-0.00094273
-0.00121962
-0.00150924
-0.00180569
-0.00210374
-0.00239888
-0.00268726
-0.00296557
-0.00323115
-0.00348184
-0.0037159
-0.00393199
-0.00412906
-0.00430636
-0.00446337
-0.00459978
-0.00471541
-0.00481026
-0.00488441
-0.00493799
-0.00497122
-0.00498432
-0.00497755
-0.00495117
-0.00490548
-0.00484078
-0.00475731
-0.00465531
-0.00453499
-0.00439651
-0.00424002
-0.0040656
-0.00387335
-0.0036633
-0.00343546
-0.00318979
-0.00292624
-0.00264472
-0.0023451
-0.00202719
-0.00169082
-0.00133578
-0.000961845
-0.000568753
-0.000156221
0.000276056
0.00072842
0.00120126
0.001695
0.00221008
0.00274694
0.00330607
0.00388799
0.00449324
0.00512236
0.00577592
0.00645452
0.0071588
0.00788944
0.00864715
0.00943268
0.0102468
0.0110904
0.0119643
0.0128693
0.0138064
0.0147766
0.0157806
0.0168196
0.0178946
0.0190064
0.0201562
0.021345
0.0225738
0.0238438
0.025156
0.0265114
0.0279111
0.029356
0.0308473
0.0323858
0.0339724
0.035608
0.0372932
0.0390288
0.0408154
0.0426534
0.0445432
0.046485
0.0484788
0.0505244
0.0526216
0.0547698
0.0569681
0.0592157
0.061511
0.0638526
0.0662385
0.0686665
0.0711339
0.073638
0.0761752
0.078742
0.0813344
0.0839477
0.0865772
0.0892176
0.0918632
0.0945078
0.0971451
0.0997682
0.10237
0.104943
0.10748
0.109972
0.112413
0.114793
0.117104
0.119338
0.121488
0.123546
0.125503
0.127354
0.12909
0.130707
0.132199
0.13356
0.134787
0.135878
0.136829
0.137639
0.13831
0.138842
0.139237
0.1395
0.139634
0.139647
0.139546
0.139339
0.139037
0.138651
0.138194
0.137681
0.137128
0.13655
0.135967
0.1354
0.134868
0.134396
0.134003
0.133714
0.133557
0.133552
0.000154754
0.000164028
0.000111
3.80788e-06
-0.000146291
-0.00033291
-0.000549676
-0.000790024
-0.00104766
-0.00131685
-0.00159236
-0.00186952
-0.00214426
-0.00241304
-0.00267284
-0.00292114
-0.00315588
-0.00337537
-0.00357827
-0.00376355
-0.00393041
-0.00407829
-0.00420681
-0.00431575
-0.00440501
-0.00447456
-0.00452448
-0.00455489
-0.00456594
-0.00455782
-0.00453072
-0.00448487
-0.00442047
-0.00433773
-0.00423682
-0.00411791
-0.00398109
-0.00382644
-0.00365405
-0.00346395
-0.00325615
-0.00303061
-0.00278729
-0.00252611
-0.00224695
-0.00194963
-0.00163399
-0.00129983
-0.000946946
-0.000575074
-0.000183935
0.00022676
0.000657318
0.00110809
0.00157946
0.00207185
0.0025857
0.00312145
0.0036796
0.00426067
0.00486519
0.00549369
0.00614672
0.00682488
0.00752881
0.00825918
0.00901669
0.00980206
0.0106161
0.0114595
0.0123332
0.0132381
0.014175
0.0151447
0.0161482
0.0171865
0.0182605
0.0193711
0.0205194
0.0217063
0.0229328
0.0242001
0.0255089
0.0268605
0.0282557
0.0296955
0.0311809
0.0327127
0.0342917
0.0359186
0.0375942
0.0393191
0.0410938
0.0429188
0.0447941
0.0467201
0.0486967
0.0507237
0.0528007
0.0549272
0.0571022
0.0593248
0.0615936
0.063907
0.066263
0.0686595
0.0710939
0.0735632
0.0760642
0.0785933
0.0811466
0.0837196
0.0863076
0.0889054
0.0915075
0.094108
0.0967006
0.0992787
0.101836
0.104364
0.106856
0.109305
0.111702
0.11404
0.116311
0.118507
0.120621
0.122644
0.124571
0.126393
0.128105
0.1297
0.131174
0.132523
0.133741
0.134827
0.135779
0.136595
0.137276
0.137823
0.138239
0.138527
0.138693
0.138741
0.13868
0.138518
0.138265
0.137932
0.13753
0.137074
0.136578
0.136057
0.13553
0.135012
0.134523
0.134083
0.133709
0.13342
0.133241
0.133187
0.000353769
0.000336728
0.00026796
0.000153462
1.84097e-06
-0.00018114
-0.000389925
-0.000618872
-0.000862655
-0.00111629
-0.00137522
-0.00163536
-0.00189302
-0.00214504
-0.00238871
-0.00262172
-0.00284212
-0.00304834
-0.00323909
-0.00341335
-0.00357035
-0.00370949
-0.00383037
-0.00393273
-0.0040164
-0.00408133
-0.0041275
-0.00415496
-0.0041638
-0.00415415
-0.00412616
-0.00407998
-0.00401573
-0.00393358
-0.00383365
-0.00371603
-0.00358078
-0.00342794
-0.00325755
-0.0030696
-0.00286406
-0.00264089
-0.00240001
-0.00214131
-0.00186464
-0.00156981
-0.00125664
-0.000924918
-0.000574416
-0.000204862
0.000184032
0.000592561
0.00102105
0.00146986
0.00193938
0.00243002
0.0029422
0.00347639
0.00403308
0.00461279
0.00521603
0.00584333
0.00649523
0.00717234
0.00787528
0.00860472
0.00936131
0.0101458
0.0109589
0.0118014
0.0126742
0.013578
0.0145137
0.0154821
0.0164842
0.0175208
0.0185929
0.0197013
0.0208469
0.0220309
0.0232541
0.0245175
0.0258221
0.0271688
0.0285585
0.0299921
0.0314706
0.0329946
0.0345651
0.0361826
0.0378478
0.0395612
0.0413234
0.0431347
0.0449952
0.0469051
0.0488643
0.0508726
0.0529297
0.0550347
0.0571871
0.0593855
0.0616288
0.0639152
0.066243
0.0686098
0.0710132
0.0734502
0.0759178
0.0784123
0.08093
0.0834664
0.086017
0.0885768
0.0911403
0.0937017
0.0962551
0.098794
0.101312
0.103801
0.106255
0.108667
0.111028
0.113331
0.115568
0.117732
0.119816
0.121812
0.123713
0.125513
0.127205
0.128784
0.130245
0.131584
0.132797
0.13388
0.134834
0.135656
0.136347
0.136908
0.137342
0.137653
0.137844
0.137923
0.137896
0.13777
0.137557
0.137266
0.136908
0.136496
0.136044
0.135565
0.135076
0.134592
0.134128
0.133702
0.133329
0.133025
0.132804
0.132673
0.000611554
0.00055873
0.00046731
0.000339885
0.000181226
-3.61318e-06
-0.000209732
-0.00043243
-0.000667173
-0.000909696
-0.00115609
-0.00140279
-0.00164655
-0.00188461
-0.00211454
-0.00233426
-0.00254201
-0.00273634
-0.00291606
-0.00308021
-0.00322805
-0.00335899
-0.00347262
-0.00356865
-0.00364691
-0.00370727
-0.00374971
-0.00377419
-0.00378077
-0.00376951
-0.00374052
-0.00369389
-0.00362971
-0.00354807
-0.00344903
-0.00333264
-0.00319891
-0.00304786
-0.00287946
-0.00269368
-0.00249045
-0.00226971
-0.00203135
-0.00177524
-0.00150119
-0.00120902
-0.000898522
-0.000569459
-0.000221574
0.00014541
0.00053178
0.000937842
0.00136394
0.00181044
0.00227773
0.00276621
0.00327631
0.00380849
0.00436326
0.00494111
0.00554254
0.00616809
0.0068183
0.00749377
0.00819511
0.00892294
0.00967792
0.0104608
0.0112722
0.0121131
0.012984
0.0138859
0.0148196
0.0157858
0.0167855
0.0178195
0.0188887
0.0199938
0.021136
0.022316
0.0235349
0.0247935
0.0260927
0.0274334
0.0288166
0.0302431
0.0317137
0.0332291
0.0347901
0.0363973
0.0380513
0.0397526
0.0415016
0.0432987
0.045144
0.0470375
0.0489792
0.0509689
0.0530061
0.0550902
0.0572203
0.0593954
0.0616142
0.063875
0.066176
0.068515
0.0708895
0.0732967
0.0757336
0.0781966
0.080682
0.0831857
0.085703
0.088229
0.0907586
0.0932861
0.0958055
0.0983108
0.100795
0.103252
0.105674
0.108055
0.110386
0.11266
0.114871
0.11701
0.11907
0.121045
0.122926
0.124709
0.126387
0.127955
0.129407
0.13074
0.131949
0.133033
0.13399
0.134818
0.135519
0.136093
0.136543
0.136873
0.137087
0.13719
0.13719
0.137094
0.136912
0.136653
0.136329
0.13595
0.135529
0.135079
0.134615
0.134149
0.133695
0.133268
0.132881
0.132548
0.13227
0.132046
0.000916719
0.000821786
0.000702418
0.000557261
0.000386723
0.000195205
-1.30381e-05
-0.000234098
-0.000464192
-0.000699721
-0.000937333
-0.00117398
-0.00140693
-0.00163375
-0.00185231
-0.0020608
-0.00225766
-0.00244159
-0.00261151
-0.00276656
-0.00290604
-0.00302943
-0.00313632
-0.00322642
-0.00329953
-0.00335553
-0.00339433
-0.0034159
-0.00342024
-0.00340738
-0.00337736
-0.00333024
-0.00326608
-0.0031849
-0.00308672
-0.00297153
-0.00283931
-0.00269003
-0.00252363
-0.00234004
-0.00213918
-0.00192094
-0.0016852
-0.00143178
-0.0011605
-0.000871139
-0.000563488
-0.000237281
0.000107761
0.000471924
0.000855501
0.00125881
0.00168221
0.00212607
0.00259077
0.00307671
0.00358432
0.00411408
0.00466647
0.00524199
0.00584112
0.00646439
0.00711235
0.0077856
0.00848471
0.0092103
0.00996301
0.0107435
0.0115526
0.012391
0.0132593
0.0141585
0.0150893
0.0160524
0.0170488
0.0180792
0.0191445
0.0202455
0.0213832
0.0225583
0.0237718
0.0250245
0.0263173
0.0276512
0.0290269
0.0304452
0.0319069
0.0334128
0.0349634
0.0365595
0.0382015
0.03989
0.0416253
0.0434077
0.0452373
0.0471142
0.0490383
0.0510094
0.053027
0.0550905
0.057199
0.0593516
0.0615469
0.0637833
0.0660591
0.068372
0.0707198
0.0730996
0.0755085
0.0779431
0.0803996
0.0828742
0.0853621
0.0878589
0.0903592
0.0928576
0.0953484
0.0978255
0.100282
0.102713
0.105109
0.107465
0.109772
0.112025
0.114215
0.116335
0.118378
0.120337
0.122206
0.123978
0.125647
0.127207
0.128655
0.129985
0.131195
0.132282
0.133243
0.134079
0.13479
0.135376
0.13584
0.136186
0.136418
0.136542
0.136563
0.136491
0.136332
0.136097
0.135796
0.135439
0.135038
0.134605
0.134152
0.133692
0.133235
0.132795
0.132382
0.132009
0.131665
0.131338
0.00125843
0.00111729
0.000966035
0.000799313
0.000612953
0.000410695
0.000196314
-2.70214e-05
-0.000256238
-0.000488319
-0.000720455
-0.000950113
-0.001175
-0.00139304
-0.00160243
-0.00180161
-0.00198925
-0.0021642
-0.00232555
-0.00247252
-0.0026045
-0.00272103
-0.00282173
-0.00290634
-0.00297466
-0.00302655
-0.00306192
-0.0030807
-0.00308291
-0.00306851
-0.00303751
-0.00298993
-0.00292579
-0.00284508
-0.00274776
-0.00263378
-0.00250308
-0.00235561
-0.00219125
-0.0020099
-0.00181148
-0.00159584
-0.00136282
-0.00111222
-0.00084384
-0.000557458
-0.000252823
7.03429e-05
0.000412331
0.000773434
0.00115396
0.00155425
0.00197467
0.00241558
0.00287734
0.00336038
0.00386513
0.00439206
0.00494165
0.00551437
0.00611072
0.00673121
0.00737641
0.00804687
0.00874316
0.00946589
0.0102157
0.0109932
0.0117992
0.0126343
0.0134994
0.014395
0.015322
0.0162813
0.0172735
0.0182994
0.0193599
0.0204558
0.0215879
0.0227571
0.0239643
0.0252102
0.0264957
0.0278216
0.0291887
0.0305979
0.0320498
0.0335451
0.0350845
0.0366686
0.0382979
0.0399728
0.0416937
0.0434608
0.0452743
0.0471343
0.0490406
0.050993
0.052991
0.0550341
0.0571215
0.0592522
0.0614248
0.0636379
0.0658898
0.0681783
0.0705011
0.0728556
0.0752389
0.0776478
0.0800785
0.0825272
0.0849895
0.0874608
0.0899361
0.0924101
0.094877
0.097331
0.0997658
0.102175
0.104551
0.106888
0.109178
0.111415
0.11359
0.115698
0.11773
0.119679
0.12154
0.123306
0.124971
0.12653
0.127977
0.129309
0.130522
0.131614
0.132583
0.133427
0.134148
0.134746
0.135223
0.135584
0.135831
0.135971
0.136009
0.135953
0.135812
0.135593
0.135307
0.134963
0.134572
0.134146
0.133694
0.133228
0.132759
0.132295
0.131847
0.131426
0.13101
0.130578
0.00162681
0.00143696
0.00125105
0.00105982
0.000854443
0.000638151
0.000414313
0.000185414
-4.60855e-05
-0.000277753
-0.000507302
-0.000732658
-0.000951929
-0.00116342
-0.00136565
-0.0015573
-0.00173727
-0.00190462
-0.00205857
-0.00219847
-0.00232382
-0.00243421
-0.00252933
-0.00260895
-0.00267288
-0.00272099
-0.00275319
-0.00276941
-0.00276963
-0.0027538
-0.00272193
-0.00267398
-0.00260993
-0.00252974
-0.00243332
-0.0023206
-0.00219149
-0.00204586
-0.00188361
-0.0017046
-0.00150871
-0.00129577
-0.00106557
-0.000817921
-0.000552593
-0.000269341
3.2112e-05
0.000352059
0.000690793
0.00104862
0.00142587
0.0018229
0.00224005
0.00267771
0.00313623
0.00361604
0.00411757
0.0046413
0.00518768
0.00575717
0.00635029
0.00696754
0.00760946
0.00827661
0.00896952
0.0096888
0.0104351
0.011209
0.0120112
0.0128424
0.0137033
0.0145947
0.0155172
0.0164717
0.0174588
0.0184794
0.0195342
0.0206241
0.0217498
0.0229121
0.0241119
0.02535
0.0266271
0.0279441
0.0293017
0.0307007
0.0321418
0.0336257
0.0351529
0.0367241
0.0383397
0.0400003
0.041706
0.0434572
0.0452541
0.0470966
0.0489848
0.0509183
0.0528967
0.0549195
0.056986
0.0590951
0.0612458
0.0634364
0.0656654
0.0679307
0.0702302
0.0725613
0.0749211
0.0773066
0.0797142
0.08214
0.0845799
0.0870293
0.0894834
0.0919369
0.0943843
0.0968198
0.0992372
0.10163
0.103992
0.106315
0.108594
0.11082
0.112986
0.115087
0.117113
0.119059
0.120918
0.122683
0.124349
0.125911
0.127362
0.128699
0.129919
0.131019
0.131997
0.132851
0.133583
0.134193
0.134683
0.135056
0.135317
0.13547
0.135521
0.135478
0.135347
0.135139
0.13486
0.134522
0.134133
0.133704
0.133245
0.132765
0.132274
0.131779
0.13129
0.130815
0.130325
0.129789
0.00201306
0.00177311
0.00155067
0.00133269
0.00110582
0.000872875
0.000636846
0.000399662
0.000163202
-7.06523e-05
-0.000300107
-0.000523503
-0.000739347
-0.000946304
-0.00114318
-0.00132895
-0.00150273
-0.00166377
-0.00181147
-0.0019453
-0.00206488
-0.00216988
-0.00226006
-0.00233522
-0.00239521
-0.00243992
-0.00246926
-0.00248319
-0.00248163
-0.00246457
-0.00243197
-0.00238378
-0.00231993
-0.00224034
-0.00214492
-0.00203354
-0.00190608
-0.00176239
-0.00160234
-0.00142577
-0.00123251
-0.00102236
-0.000795112
-0.000550539
-0.000288399
-8.418e-06
0.000289698
0.000606251
0.000941545
0.0012959
0.00166967
0.0020632
0.00247685
0.00291098
0.00336597
0.00384225
0.00434026
0.00486043
0.00540322
0.00596909
0.00655855
0.00717211
0.00781029
0.00847361
0.00916262
0.0098779
0.0106201
0.0113898
0.0121876
0.0130142
0.0138703
0.0147567
0.015674
0.0166229
0.0176041
0.0186185
0.0196668
0.0207497
0.021868
0.0230225
0.024214
0.0254432
0.0267109
0.028018
0.0293651
0.0307529
0.0321822
0.0336536
0.0351677
0.036725
0.0383262
0.0399715
0.0416613
0.0433959
0.0451754
0.047
0.0488695
0.0507838
0.0527424
0.0547448
0.0567905
0.0588784
0.0610074
0.0631762
0.0653832
0.0676264
0.0699038
0.072213
0.0745511
0.0769152
0.0793019
0.0817075
0.0841278
0.0865585
0.0889948
0.0914316
0.0938635
0.0962847
0.0986891
0.10107
0.103422
0.105737
0.108009
0.11023
0.112393
0.114492
0.116518
0.118466
0.120328
0.122098
0.12377
0.125338
0.126798
0.128145
0.129375
0.130486
0.131475
0.132342
0.133086
0.133709
0.134211
0.134597
0.134869
0.135033
0.135094
0.135059
0.134936
0.134732
0.134455
0.134116
0.133723
0.133284
0.132811
0.13231
0.13179
0.131257
0.130722
0.130191
0.129625
0.128987
0.00240927
0.00211859
0.00185842
0.00161208
0.00136185
0.00111018
0.000859803
0.000612097
0.000368415
0.000130155
-0.000101336
-0.000324814
-0.000539158
-0.000743364
-0.000936545
-0.00111794
-0.00128688
-0.00144285
-0.00158538
-0.00171413
-0.00182879
-0.00192916
-0.00201505
-0.00208632
-0.00214285
-0.00218458
-0.00221144
-0.00222337
-0.00222031
-0.00220224
-0.00216911
-0.00212084
-0.00205733
-0.00197848
-0.00188417
-0.00177424
-0.00164854
-0.00150689
-0.00134915
-0.00117512
-0.000984593
-0.000777352
-0.000553167
-0.000311795
-5.29658e-05
0.000223617
0.000518257
0.000831259
0.00116294
0.00151366
0.00188376
0.00227359
0.00268351
0.00311387
0.00356509
0.00403757
0.00453174
0.00504804
0.0055869
0.00614879
0.00673422
0.00734368
0.00797767
0.00863671
0.00932133
0.0100321
0.0107696
0.0115345
0.0123273
0.0131488
0.0139995
0.0148801
0.0157914
0.016734
0.0177086
0.0187159
0.0197568
0.0208318
0.0219418
0.0230876
0.0242697
0.0254891
0.0267465
0.0280426
0.0293781
0.0307538
0.0321703
0.0336282
0.0351281
0.0366707
0.0382564
0.0398855
0.0415586
0.0432757
0.0450372
0.0468431
0.0486934
0.0505879
0.0525264
0.0545082
0.056533
0.0585997
0.0607074
0.0628547
0.0650403
0.0672622
0.0695186
0.071807
0.074125
0.0764695
0.0788373
0.0812248
0.0836281
0.0860428
0.0884643
0.0908877
0.0933076
0.0957183
0.0981139
0.100488
0.102834
0.105146
0.107416
0.109637
0.111802
0.113904
0.115935
0.11789
0.11976
0.121539
0.123222
0.124802
0.126275
0.127635
0.12888
0.130005
0.131009
0.13189
0.132648
0.133285
0.1338
0.134198
0.134481
0.134654
0.134723
0.134694
0.134574
0.13437
0.134091
0.133746
0.133342
0.132889
0.132394
0.131867
0.131313
0.130739
0.130154
0.129565
0.128925
0.128189
0.00280835
0.0024668
0.00216824
0.00189244
0.00161744
0.00134548
0.00107905
0.000819005
0.000566232
0.00032171
8.63614e-05
-0.000138964
-0.000353489
-0.000556528
-0.00074749
-0.00092587
-0.00109124
-0.00124328
-0.00138169
-0.00150628
-0.00161688
-0.00171336
-0.00179562
-0.00186357
-0.00191718
-0.00195638
-0.00198114
-0.00199141
-0.00198717
-0.00196837
-0.00193493
-0.00188677
-0.00182378
-0.00174583
-0.00165277
-0.00154441
-0.00142059
-0.00128111
-0.00112579
-0.000954399
-0.000766713
-0.000562489
-0.000341483
-0.000103423
0.000151987
0.000425055
0.000716088
0.0010254
0.00135334
0.00170027
0.00206653
0.00245248
0.00285846
0.00328486
0.00373208
0.00420053
0.00469061
0.00520274
0.00573738
0.00629498
0.00687604
0.00748102
0.00811043
0.00876477
0.00944456
0.0101504
0.0108828
0.0116423
0.0124296
0.0132452
0.0140898
0.0149641
0.0158687
0.0168043
0.0177714
0.018771
0.0198035
0.0208699
0.0219707
0.0231067
0.0242786
0.0254872
0.0267332
0.0280174
0.0293403
0.0307028
0.0321054
0.0335488
0.0350336
0.0365603
0.0381295
0.0397416
0.0413969
0.0430957
0.0448383
0.0466248
0.0484552
0.0503294
0.0522471
0.054208
0.0562115
0.058257
0.0603433
0.0624695
0.0646339
0.0668351
0.0690712
0.0713399
0.0736388
0.0759651
0.0783157
0.0806871
0.0830754
0.0854766
0.0878861
0.090299
0.09271
0.0951137
0.0975041
0.0998749
0.10222
0.104532
0.106805
0.10903
0.111202
0.113312
0.115354
0.11732
0.119203
0.120998
0.122696
0.124293
0.125783
0.127161
0.128423
0.129566
0.130588
0.131487
0.132261
0.132913
0.133443
0.133853
0.134147
0.134328
0.134404
0.134378
0.134259
0.134053
0.133768
0.133412
0.132993
0.13252
0.132001
0.131442
0.130851
0.130232
0.129595
0.128947
0.128233
0.127404
0.00320389
0.0028117
0.00247446
0.00216848
0.00186775
0.0015743
0.00129046
0.00101662
0.000753251
0.000500921
0.000260174
3.15001e-05
-0.00018466
-0.000387929
-0.00057799
-0.000754593
-0.00091755
-0.00106672
-0.00120199
-0.00132332
-0.00143066
-0.00152399
-0.00160327
-0.00166851
-0.00171971
-0.00175686
-0.00177994
-0.00178894
-0.00178384
-0.00176459
-0.0017311
-0.00168328
-0.00162102
-0.00154414
-0.00145247
-0.00134583
-0.00122402
-0.00108684
-0.000934051
-0.000765412
-0.000580668
-0.000379566
-0.000161835
7.28238e-05
0.000324721
0.000594169
0.000881485
0.00118701
0.00151109
0.0018541
0.00221638
0.00259829
0.00300018
0.00342245
0.00386549
0.00432969
0.00481546
0.0053232
0.00585336
0.0064064
0.00698279
0.00758299
0.00820747
0.00885674
0.00953133
0.0102317
0.0109585
0.0117122
0.0124934
0.0133027
0.0141407
0.015008
0.0159052
0.016833
0.0177921
0.018783
0.0198065
0.0208633
0.021954
0.0230794
0.0242402
0.025437
0.0266707
0.0279418
0.0292512
0.0305993
0.031987
0.0334149
0.0348835
0.0363933
0.037945
0.0395389
0.0411755
0.042855
0.0445778
0.046344
0.0481536
0.0500067
0.0519031
0.0538425
0.0558244
0.0578483
0.0599131
0.062018
0.0641616
0.0663423
0.0685586
0.0708082
0.073089
0.0753982
0.0777329
0.0800897
0.0824649
0.0848546
0.0872543
0.0896592
0.0920643
0.094464
0.0968525
0.0992237
0.101571
0.103888
0.106167
0.108402
0.110585
0.112708
0.114765
0.116748
0.118649
0.120463
0.122182
0.1238
0.125312
0.126712
0.127997
0.129162
0.130205
0.131124
0.131918
0.132587
0.133132
0.133556
0.133861
0.134051
0.134132
0.134109
0.133989
0.133777
0.133483
0.133114
0.132677
0.132181
0.131633
0.13104
0.130408
0.129743
0.129053
0.128345
0.12756
0.126641
0.0035901
0.0031477
0.00277173
0.00243521
0.00210809
0.00179226
0.00148996
0.0012012
0.000926008
0.000664599
0.000417169
0.000183873
-3.51723e-05
-0.000239881
-0.000430209
-0.00060615
-0.000767736
-0.000915019
-0.00104808
-0.001167
-0.00127185
-0.00136272
-0.00143968
-0.00150279
-0.00155212
-0.00158768
-0.00160952
-0.00161765
-0.00161204
-0.00159265
-0.00155939
-0.00151216
-0.00145082
-0.0013752
-0.0012851
-0.00118034
-0.00106069
-0.000925919
-0.00077577
-0.000609979
-0.000428278
-0.000230387
-1.60068e-05
0.000215178
0.000463484
0.00072923
0.00101275
0.0013144
0.00163454
0.00197354
0.00233173
0.00270949
0.00310717
0.00352518
0.00396389
0.00442369
0.00490496
0.00540812
0.00593361
0.00648188
0.00705335
0.00764849
0.00826777
0.00891167
0.00958069
0.0102753
0.0109961
0.0117435
0.0125182
0.0133206
0.0141513
0.0150111
0.0159003
0.0168197
0.0177699
0.0187515
0.0197652
0.0208116
0.0218915
0.0230053
0.024154
0.0253381
0.0265585
0.0278156
0.0291103
0.0304432
0.0318149
0.0332261
0.0346773
0.0361692
0.0377023
0.039277
0.0408937
0.0425529
0.0442548
0.0459997
0.0477877
0.0496189
0.0514932
0.0534104
0.0553701
0.0573718
0.0594149
0.0614982
0.0636208
0.0657812
0.0679778
0.0702088
0.072472
0.0747649
0.0770847
0.0794281
0.0817917
0.0841716
0.0865635
0.0889627
0.0913643
0.0937628
0.0961524
0.0985271
0.100881
0.103206
0.105496
0.107744
0.109942
0.112083
0.11416
0.116164
0.118088
0.119926
0.121671
0.123315
0.124853
0.12628
0.127591
0.128783
0.129851
0.130793
0.131609
0.132299
0.132862
0.133301
0.133619
0.133818
0.133905
0.133884
0.133761
0.133543
0.133238
0.132853
0.132395
0.131873
0.131294
0.130664
0.12999
0.129276
0.128532
0.127765
0.12691
0.125907
0.00396167
0.00346962
0.00305508
0.00268782
0.00233388
0.00199506
0.00167354
0.00136897
0.001081
0.000809491
0.000554323
0.000315329
9.23313e-05
-0.00011487
-0.000306489
-0.000482756
-0.000643916
-0.00079022
-0.000921905
-0.0010392
-0.0011423
-0.0012314
-0.00130666
-0.00136822
-0.00141619
-0.00145066
-0.0014717
-0.00147935
-0.00147359
-0.00145437
-0.00142162
-0.00137523
-0.00131504
-0.00124087
-0.00115252
-0.00104979
-0.000932441
-0.0008002
-0.000652794
-0.000489946
-0.000311369
-0.000116756
9.42176e-05
0.000321874
0.000566534
0.000828527
0.00110821
0.00140594
0.00172209
0.00205701
0.00241105
0.00278459
0.00317799
0.00359165
0.00402593
0.00448121
0.00495786
0.00545631
0.00597698
0.00652029
0.00708666
0.00767654
0.00829037
0.00892863
0.00959179
0.0102803
0.0109947
0.0117355
0.0125031
0.0132982
0.0141212
0.0149728
0.0158535
0.0167639
0.0177046
0.0186762
0.0196793
0.0207146
0.0217826
0.0228842
0.0240199
0.0251904
0.0263964
0.0276386
0.0289176
0.0302341
0.0315887
0.0329821
0.034415
0.0358877
0.037401
0.0389553
0.0405511
0.0421888
0.0438688
0.0455913
0.0473567
0.049165
0.0510162
0.0529104
0.0548472
0.0568262
0.0588468
0.0609082
0.0630094
0.0651492
0.0673263
0.0695388
0.0717848
0.0740619
0.0763674
0.0786984
0.0810515
0.083423
0.0858086
0.088204
0.0906042
0.0930038
0.0953973
0.0977785
0.100141
0.102478
0.104783
0.107048
0.109266
0.111429
0.113529
0.115559
0.117512
0.119379
0.121153
0.122829
0.124398
0.125857
0.127199
0.128421
0.129518
0.130488
0.13133
0.132043
0.132627
0.133084
0.133415
0.133625
0.133718
0.133699
0.133574
0.133349
0.133031
0.132629
0.132149
0.131599
0.130986
0.130318
0.129599
0.128836
0.128038
0.127213
0.12629
0.125204
0.00431363
0.0037726
0.00331975
0.00292171
0.00254073
0.00217854
0.00183725
0.0015162
0.00121469
0.000932286
0.000668522
0.000422944
0.000195089
-1.55084e-05
-0.000209314
-0.000386782
-0.000548368
-0.000694505
-0.00082559
-0.000941983
-0.00104402
-0.00113199
-0.00120616
-0.00126671
-0.00131384
-0.0013477
-0.00136838
-0.00137594
-0.00137037
-0.00135165
-0.0013197
-0.0012744
-0.00121557
-0.00114305
-0.00105663
-0.000956087
-0.000841153
-0.000711546
-0.000566977
-0.000407151
-0.000231756
-4.04603e-05
0.000167071
0.000391167
0.000632155
0.000890383
0.00116622
0.00146003
0.00177218
0.002103
0.00245288
0.00282218
0.00321128
0.00362055
0.00405035
0.00450103
0.004973
0.00546666
0.0059824
0.00652063
0.00708176
0.0076662
0.00827442
0.00890683
0.00956388
0.010246
0.0109537
0.0116874
0.0124477
0.013235
0.0140498
0.0148928
0.0157644
0.0166652
0.0175957
0.0185567
0.0195485
0.0205719
0.0216275
0.0227159
0.0238378
0.0249938
0.0261845
0.0274107
0.028673
0.029972
0.0313085
0.032683
0.0340962
0.0355487
0.037041
0.0385738
0.0401474
0.0417625
0.0434194
0.0451184
0.04686
0.0486443
0.0504716
0.0523417
0.0542546
0.05621
0.0582074
0.0602462
0.0623256
0.0644445
0.0666017
0.0687956
0.0710244
0.0732859
0.0755776
0.0778968
0.0802402
0.0826043
0.084985
0.0873781
0.0897786
0.0921815
0.094581
0.0969713
0.0993459
0.101698
0.104021
0.106307
0.108548
0.110737
0.112865
0.114926
0.116911
0.118812
0.120621
0.122333
0.123939
0.125434
0.126812
0.128069
0.1292
0.130202
0.131074
0.131814
0.132421
0.132898
0.133246
0.133469
0.133569
0.133553
0.133425
0.133193
0.132863
0.132442
0.131939
0.13136
0.130712
0.130004
0.129241
0.128427
0.127575
0.126692
0.125703
0.124538
0.00464132
0.00405204
0.00356124
0.00313251
0.00272441
0.00233861
0.00197719
0.00163918
0.00132358
0.00102963
0.000756587
0.000503698
0.000270232
5.54698e-05
-0.000141294
-0.000320734
-0.000483501
-0.000630197
-0.000761376
-0.000877545
-0.000979156
-0.0010666
-0.00114022
-0.0012003
-0.00124709
-0.00128079
-0.00130153
-0.00130937
-0.00130436
-0.00128645
-0.00125557
-0.00121158
-0.00115434
-0.00108366
-0.000999333
-0.000901104
-0.000788694
-0.000661813
-0.000520156
-0.000363404
-0.000191218
-3.25255e-06
0.000200829
0.000421362
0.000658695
0.000913191
0.00118522
0.00147514
0.00178331
0.00211008
0.00245583
0.00282093
0.00320576
0.00361065
0.00403596
0.00448205
0.00494932
0.00543815
0.00594891
0.00648199
0.00703779
0.00761671
0.00821917
0.00884557
0.00949632
0.0101718
0.0108725
0.0115989
0.0123515
0.0131306
0.0139369
0.0147708
0.0156328
0.0165234
0.0174433
0.018393
0.0193729
0.0203838
0.0214261
0.0225006
0.0236078
0.0247483
0.0259229
0.0271321
0.0283766
0.0296571
0.0309743
0.0323289
0.0337213
0.0351523
0.0366225
0.0381324
0.0396827
0.0412739
0.0429064
0.0445808
0.0462974
0.0480566
0.0498587
0.0517037
0.0535917
0.0555225
0.0574958
0.0595112
0.061568
0.0636653
0.0658021
0.067977
0.0701883
0.0724342
0.0747122
0.0770199
0.0793541
0.0817115
0.0840883
0.0864802
0.0888826
0.0912904
0.0936981
0.0960997
0.0984888
0.100859
0.103202
0.105512
0.107781
0.109999
0.112161
0.114256
0.116278
0.118218
0.120067
0.12182
0.123467
0.125004
0.126423
0.12772
0.12889
0.129928
0.130834
0.131605
0.13224
0.13274
0.133108
0.133345
0.133455
0.133443
0.133314
0.133075
0.132732
0.132293
0.131766
0.131157
0.130474
0.129726
0.128916
0.128053
0.127146
0.126206
0.125151
0.123909
0.0049403
0.00430352
0.00377522
0.003316
0.0028808
0.0024713
0.00208954
0.00173426
0.00140415
0.00109817
0.000815294
0.000554502
0.0003148
9.52264e-05
-0.000105157
-0.000287236
-0.000451839
-0.000599738
-0.00073164
-0.000848191
-0.000949956
-0.00103742
-0.00111102
-0.00117112
-0.00121805
-0.00125202
-0.0012732
-0.0012817
-0.00127756
-0.00126074
-0.00123118
-0.00118874
-0.00113328
-0.00106462
-0.000982519
-0.000886714
-0.000776917
-0.000652827
-0.000514123
-0.000360457
-0.000191474
-6.82456e-06
0.000193833
0.00041085
0.000644591
0.000895429
0.00116372
0.00144983
0.0017541
0.00207692
0.00241864
0.00277964
0.00316025
0.00356083
0.00398172
0.00442328
0.00488589
0.0053699
0.00587568
0.0064036
0.00695404
0.00752739
0.00812401
0.00874429
0.00938859
0.0100573
0.0107509
0.0114697
0.0122143
0.012985
0.0137823
0.0146067
0.0154587
0.0163387
0.0172474
0.0181852
0.0191527
0.0201503
0.0211787
0.0222385
0.0233302
0.0244545
0.0256119
0.0268032
0.028029
0.0292899
0.0305868
0.0319201
0.0332906
0.0346989
0.0361457
0.0376317
0.0391574
0.0407234
0.0423303
0.0439787