/*--------------------------------*- C++ -*----------------------------------*\
  =========                 |
  \\      /  F ield         | OpenFOAM: The Open Source CFD Toolbox
   \\    /   O peration     | Website:  https://openfoam.org
    \\  /    A nd           | Version:  7
     \\/     M anipulation  |
\*---------------------------------------------------------------------------*/
FoamFile
{
    version     2.0;
    format      ascii;
    class       volVectorField;
    location    "0.1375";
    object      U;
}
// * * * * * * * * * * * * * * * * * * * * * * * * * * * * * * * * * * * * * //

dimensions      [0 1 -1 0 0 0 0];

internalField   nonuniform List<vector> 
12800
(
(4.07659e-06 -4.0788e-06 0)
(2.06064e-05 -1.05546e-05 0)
(4.70114e-05 -1.22073e-05 0)
(7.20645e-05 -1.06496e-05 0)
(8.89146e-05 -7.34668e-06 0)
(9.43127e-05 -3.18377e-06 0)
(8.65983e-05 1.30491e-06 0)
(6.51092e-05 5.81968e-06 0)
(2.98533e-05 1.01856e-05 0)
(-1.87536e-05 1.43068e-05 0)
(-8.00306e-05 1.8134e-05 0)
(-0.000153151 2.1639e-05 0)
(-0.000237199 2.48146e-05 0)
(-0.000331219 2.76678e-05 0)
(-0.000434256 3.02064e-05 0)
(-0.000545369 3.24452e-05 0)
(-0.000663646 3.44031e-05 0)
(-0.000788222 3.60953e-05 0)
(-0.000918287 3.75425e-05 0)
(-0.00105308 3.87685e-05 0)
(-0.0011919 3.97924e-05 0)
(-0.0013341 4.06334e-05 0)
(-0.00147912 4.1313e-05 0)
(-0.0016264 4.18497e-05 0)
(-0.0017755 4.22582e-05 0)
(-0.00192599 4.25541e-05 0)
(-0.00207749 4.27524e-05 0)
(-0.00222969 4.28653e-05 0)
(-0.0023823 4.29051e-05 0)
(-0.00253509 4.28851e-05 0)
(-0.00268783 4.28165e-05 0)
(-0.00284037 4.27066e-05 0)
(-0.00299255 4.25619e-05 0)
(-0.00314426 4.23911e-05 0)
(-0.00329541 4.22018e-05 0)
(-0.00344592 4.19995e-05 0)
(-0.00359573 4.17885e-05 0)
(-0.00374481 4.15725e-05 0)
(-0.00389314 4.13552e-05 0)
(-0.00404071 4.11395e-05 0)
(-0.00418751 4.09287e-05 0)
(-0.00433355 4.07261e-05 0)
(-0.00447886 4.05332e-05 0)
(-0.00462346 4.03508e-05 0)
(-0.00476738 4.01795e-05 0)
(-0.00491066 4.00213e-05 0)
(-0.00505333 3.98783e-05 0)
(-0.00519546 3.97517e-05 0)
(-0.00533709 3.9642e-05 0)
(-0.00547827 3.95502e-05 0)
(-0.00561906 3.94769e-05 0)
(-0.00575953 3.94223e-05 0)
(-0.00589972 3.9386e-05 0)
(-0.00603971 3.93688e-05 0)
(-0.00617957 3.93723e-05 0)
(-0.00631935 3.93978e-05 0)
(-0.00645913 3.94449e-05 0)
(-0.00659898 3.95128e-05 0)
(-0.00673896 3.96014e-05 0)
(-0.00687915 3.97108e-05 0)
(-0.00701962 3.98411e-05 0)
(-0.00716042 3.99918e-05 0)
(-0.00730163 4.01625e-05 0)
(-0.00744331 4.03531e-05 0)
(-0.00758552 4.05632e-05 0)
(-0.00772832 4.07915e-05 0)
(-0.00787176 4.10358e-05 0)
(-0.00801589 4.12947e-05 0)
(-0.00816076 4.15669e-05 0)
(-0.00830639 4.18513e-05 0)
(-0.00845283 4.2146e-05 0)
(-0.00860008 4.2448e-05 0)
(-0.00874817 4.27542e-05 0)
(-0.00889708 4.30614e-05 0)
(-0.00904681 4.33663e-05 0)
(-0.00919734 4.3665e-05 0)
(-0.00934862 4.39534e-05 0)
(-0.00950061 4.42266e-05 0)
(-0.00965322 4.44795e-05 0)
(-0.00980637 4.47065e-05 0)
(-0.00995994 4.49015e-05 0)
(-0.0101138 4.50583e-05 0)
(-0.0102678 4.51702e-05 0)
(-0.0104218 4.523e-05 0)
(-0.0105755 4.523e-05 0)
(-0.0107288 4.5162e-05 0)
(-0.0108813 4.50175e-05 0)
(-0.0110329 4.47875e-05 0)
(-0.011183 4.44627e-05 0)
(-0.0113315 4.40331e-05 0)
(-0.011478 4.34885e-05 0)
(-0.0116219 4.28188e-05 0)
(-0.0117629 4.20131e-05 0)
(-0.0119004 4.10601e-05 0)
(-0.012034 3.9948e-05 0)
(-0.0121631 3.86656e-05 0)
(-0.012287 3.72022e-05 0)
(-0.0124052 3.55475e-05 0)
(-0.012517 3.36906e-05 0)
(-0.0126216 3.16204e-05 0)
(-0.0127184 2.93262e-05 0)
(-0.0128066 2.67983e-05 0)
(-0.0128854 2.40282e-05 0)
(-0.0129539 2.10082e-05 0)
(-0.0130114 1.7732e-05 0)
(-0.013057 1.41946e-05 0)
(-0.0130898 1.03922e-05 0)
(-0.013109 6.32194e-06 0)
(-0.0131136 1.98316e-06 0)
(-0.0131029 -2.62248e-06 0)
(-0.0130759 -7.49005e-06 0)
(-0.0130319 -1.26119e-05 0)
(-0.01297 -1.79782e-05 0)
(-0.0128896 -2.35765e-05 0)
(-0.0127899 -2.93914e-05 0)
(-0.0126702 -3.54035e-05 0)
(-0.0125301 -4.15901e-05 0)
(-0.0123689 -4.79247e-05 0)
(-0.0121864 -5.43772e-05 0)
(-0.0119823 -6.09141e-05 0)
(-0.0117563 -6.74979e-05 0)
(-0.0115085 -7.40883e-05 0)
(-0.011239 -8.06418e-05 0)
(-0.010948 -8.71111e-05 0)
(-0.0106359 -9.3446e-05 0)
(-0.0103033 -9.95932e-05 0)
(-0.00995093 -0.000105498 0)
(-0.00957978 -0.000111105 0)
(-0.00919093 -0.000116358 0)
(-0.00878567 -0.000121199 0)
(-0.00836548 -0.000125572 0)
(-0.00793201 -0.000129419 0)
(-0.00748711 -0.000132684 0)
(-0.00703278 -0.000135317 0)
(-0.00657117 -0.000137267 0)
(-0.00610461 -0.00013849 0)
(-0.00563554 -0.000138945 0)
(-0.00516654 -0.000138597 0)
(-0.00470027 -0.000137415 0)
(-0.0042395 -0.000135374 0)
(-0.00378704 -0.000132453 0)
(-0.00334577 -0.000128644 0)
(-0.00291856 -0.00012394 0)
(-0.0025083 -0.000118343 0)
(-0.00211785 -0.000111859 0)
(-0.00175002 -0.000104499 0)
(-0.00140755 -9.62815e-05 0)
(-0.00109309 -8.72306e-05 0)
(-0.000809153 -7.73744e-05 0)
(-0.000558101 -6.67488e-05 0)
(-0.000342093 -5.54018e-05 0)
(-0.000163018 -4.33986e-05 0)
(-2.24083e-05 -3.08358e-05 0)
(7.87244e-05 -1.78768e-05 0)
(0.000140168 -4.81468e-06 0)
(0.000162987 7.79202e-06 0)
(0.000150237 1.8871e-05 0)
(0.000108624 2.63299e-05 0)
(5.35811e-05 2.61457e-05 0)
(1.27149e-05 1.27321e-05 0)
(1.08581e-05 -2.06922e-05 0)
(4.40502e-05 -4.36121e-05 0)
(8.89305e-05 -4.67763e-05 0)
(0.000125476 -3.63621e-05 0)
(0.000140748 -1.75648e-05 0)
(0.000127468 6.01316e-06 0)
(8.12789e-05 3.19349e-05 0)
(5.9675e-09 5.85994e-05 0)
(-0.000116915 8.49583e-05 0)
(-0.000268918 0.000110347 0)
(-0.000454684 0.000134345 0)
(-0.000672386 0.000156693 0)
(-0.000919874 0.000177261 0)
(-0.00119482 0.000195988 0)
(-0.00149483 0.000212873 0)
(-0.00181746 0.000227961 0)
(-0.00216036 0.000241317 0)
(-0.00252122 0.000253028 0)
(-0.00289785 0.000263198 0)
(-0.00328819 0.000271933 0)
(-0.00369033 0.000279344 0)
(-0.00410249 0.000285546 0)
(-0.00452303 0.000290653 0)
(-0.00495047 0.000294771 0)
(-0.00538347 0.000298006 0)
(-0.00582084 0.000300458 0)
(-0.00626149 0.000302218 0)
(-0.00670447 0.000303371 0)
(-0.00714897 0.000304 0)
(-0.00759426 0.00030418 0)
(-0.00803971 0.000303978 0)
(-0.0084848 0.000303455 0)
(-0.00892907 0.000302666 0)
(-0.00937216 0.000301662 0)
(-0.00981376 0.000300487 0)
(-0.0102536 0.000299181 0)
(-0.0106916 0.00029778 0)
(-0.0111275 0.000296314 0)
(-0.0115612 0.00029481 0)
(-0.0119927 0.00029329 0)
(-0.012422 0.000291776 0)
(-0.0128491 0.000290289 0)
(-0.0132739 0.000288843 0)
(-0.0136966 0.000287451 0)
(-0.0141172 0.000286125 0)
(-0.0145359 0.000284877 0)
(-0.0149526 0.000283717 0)
(-0.0153676 0.000282651 0)
(-0.015781 0.000281688 0)
(-0.0161929 0.000280834 0)
(-0.0166035 0.000280096 0)
(-0.0170129 0.000279477 0)
(-0.0174213 0.000278982 0)
(-0.0178289 0.000278613 0)
(-0.0182359 0.000278375 0)
(-0.0186424 0.000278271 0)
(-0.0190486 0.000278303 0)
(-0.0194548 0.000278469 0)
(-0.019861 0.000278772 0)
(-0.0202675 0.00027921 0)
(-0.0206745 0.000279782 0)
(-0.0210822 0.000280484 0)
(-0.0214907 0.000281311 0)
(-0.0219002 0.000282261 0)
(-0.0223109 0.000283328 0)
(-0.0227229 0.000284504 0)
(-0.0231364 0.000285778 0)
(-0.0235515 0.00028714 0)
(-0.0239682 0.000288578 0)
(-0.0243867 0.00029008 0)
(-0.0248071 0.000291628 0)
(-0.0252293 0.000293204 0)
(-0.0256535 0.000294788 0)
(-0.0260795 0.000296358 0)
(-0.0265073 0.000297889 0)
(-0.0269368 0.000299354 0)
(-0.027368 0.000300722 0)
(-0.0278005 0.000301961 0)
(-0.0282343 0.000303036 0)
(-0.0286689 0.000303909 0)
(-0.0291041 0.000304539 0)
(-0.0295394 0.000304882 0)
(-0.0299745 0.000304892 0)
(-0.0304087 0.00030452 0)
(-0.0308415 0.000303714 0)
(-0.0312722 0.000302421 0)
(-0.0317 0.000300583 0)
(-0.032124 0.00029814 0)
(-0.0325435 0.000295029 0)
(-0.0329573 0.000291187 0)
(-0.0333643 0.000286547 0)
(-0.0337634 0.00028104 0)
(-0.0341532 0.000274599 0)
(-0.0345323 0.000267151 0)
(-0.0348993 0.000258627 0)
(-0.0352526 0.000248954 0)
(-0.0355904 0.000238065 0)
(-0.0359111 0.000225889 0)
(-0.0362126 0.000212361 0)
(-0.0364932 0.000197417 0)
(-0.0367507 0.000180995 0)
(-0.0369829 0.00016304 0)
(-0.0371878 0.000143502 0)
(-0.0373631 0.000122339 0)
(-0.0375064 9.95136e-05 0)
(-0.0376155 7.5001e-05 0)
(-0.037688 4.87851e-05 0)
(-0.0377215 2.08617e-05 0)
(-0.0377137 -8.76071e-06 0)
(-0.0376622 -4.00596e-05 0)
(-0.0375648 -7.29964e-05 0)
(-0.0374192 -0.000107515 0)
(-0.0372235 -0.000143543 0)
(-0.0369755 -0.000180987 0)
(-0.0366735 -0.000219735 0)
(-0.0363158 -0.000259653 0)
(-0.035901 -0.000300587 0)
(-0.0354278 -0.00034236 0)
(-0.0348954 -0.000384773 0)
(-0.034303 -0.000427605 0)
(-0.0336504 -0.000470613 0)
(-0.0329376 -0.000513534 0)
(-0.0321649 -0.000556083 0)
(-0.0313333 -0.000597959 0)
(-0.0304439 -0.000638843 0)
(-0.0294985 -0.000678404 0)
(-0.0284992 -0.000716295 0)
(-0.0274487 -0.000752165 0)
(-0.0263501 -0.000785657 0)
(-0.0252071 -0.000816411 0)
(-0.0240236 -0.000844072 0)
(-0.0228044 -0.00086829 0)
(-0.0215545 -0.000888727 0)
(-0.0202793 -0.00090506 0)
(-0.0189849 -0.000916987 0)
(-0.0176775 -0.000924229 0)
(-0.0163639 -0.000926536 0)
(-0.015051 -0.000923691 0)
(-0.0137461 -0.000915511 0)
(-0.0124567 -0.000901852 0)
(-0.0111904 -0.00088261 0)
(-0.00995502 -0.000857725 0)
(-0.00875832 -0.00082718 0)
(-0.00760806 -0.000791004 0)
(-0.00651191 -0.000749273 0)
(-0.00547737 -0.000702111 0)
(-0.00451171 -0.000649693 0)
(-0.00362184 -0.000592249 0)
(-0.00281427 -0.000530076 0)
(-0.00209494 -0.000463555 0)
(-0.00146909 -0.00039318 0)
(-0.000941025 -0.000319615 0)
(-0.000513815 -0.000243788 0)
(-0.00018885 -0.000167052 0)
(3.48684e-05 -9.14733e-05 0)
(0.000161757 -2.03277e-05 0)
(0.000200982 4.10919e-05 0)
(0.00016872 8.41339e-05 0)
(9.46345e-05 9.48126e-05 0)
(2.60012e-05 5.34796e-05 0)
(1.27992e-05 -4.77616e-05 0)
(4.80917e-05 -8.884e-05 0)
(8.91567e-05 -8.74876e-05 0)
(0.000111945 -5.66883e-05 0)
(0.000100848 -6.36928e-06 0)
(4.64967e-05 5.59203e-05 0)
(-5.70803e-05 0.000124695 0)
(-0.000213137 0.000196036 0)
(-0.000422758 0.000267242 0)
(-0.000685446 0.000336449 0)
(-0.000999563 0.000402409 0)
(-0.00136265 0.000464326 0)
(-0.00177173 0.00052171 0)
(-0.00222348 0.000574307 0)
(-0.00271439 0.00062204 0)
(-0.00324088 0.000664943 0)
(-0.00379941 0.000703151 0)
(-0.00438649 0.00073686 0)
(-0.0049988 0.000766309 0)
(-0.00563317 0.000791764 0)
(-0.00628663 0.000813516 0)
(-0.00695639 0.000831855 0)
(-0.0076399 0.000847077 0)
(-0.00833481 0.000859475 0)
(-0.009039 0.000869332 0)
(-0.00975053 0.000876917 0)
(-0.0104677 0.000882489 0)
(-0.0111889 0.000886288 0)
(-0.0119129 0.000888539 0)
(-0.0126385 0.00088945 0)
(-0.0133645 0.000889213 0)
(-0.0140902 0.000888004 0)
(-0.0148148 0.000885981 0)
(-0.0155376 0.000883287 0)
(-0.0162581 0.000880051 0)
(-0.0169759 0.000876389 0)
(-0.0176907 0.000872404 0)
(-0.0184021 0.000868189 0)
(-0.0191101 0.000863822 0)
(-0.0198144 0.000859374 0)
(-0.0205151 0.000854909 0)
(-0.0212121 0.000850483 0)
(-0.0219053 0.000846144 0)
(-0.022595 0.000841936 0)
(-0.0232811 0.000837895 0)
(-0.0239638 0.000834056 0)
(-0.0246433 0.000830447 0)
(-0.0253197 0.000827093 0)
(-0.0259933 0.000824017 0)
(-0.0266642 0.00082124 0)
(-0.0273327 0.000818779 0)
(-0.027999 0.000816648 0)
(-0.0286634 0.000814861 0)
(-0.0293262 0.000813428 0)
(-0.0299876 0.000812359 0)
(-0.0306479 0.000811661 0)
(-0.0313075 0.000811339 0)
(-0.0319665 0.000811394 0)
(-0.0326253 0.000811826 0)
(-0.0332842 0.000812635 0)
(-0.0339435 0.000813813 0)
(-0.0346034 0.000815351 0)
(-0.0352642 0.000817237 0)
(-0.0359262 0.000819457 0)
(-0.0365896 0.000821993 0)
(-0.0372547 0.00082482 0)
(-0.0379216 0.000827912 0)
(-0.0385906 0.000831235 0)
(-0.0392617 0.000834755 0)
(-0.0399352 0.000838428 0)
(-0.040611 0.000842209 0)
(-0.0412893 0.000846043 0)
(-0.0419699 0.000849871 0)
(-0.042653 0.000853627 0)
(-0.0433383 0.000857238 0)
(-0.0440256 0.000860626 0)
(-0.0447149 0.000863701 0)
(-0.0454056 0.000866371 0)
(-0.0460974 0.000868534 0)
(-0.04679 0.000870081 0)
(-0.0474825 0.000870894 0)
(-0.0481745 0.000870848 0)
(-0.0488652 0.000869812 0)
(-0.0495536 0.000867644 0)
(-0.0502388 0.000864197 0)
(-0.0509196 0.000859318 0)
(-0.0515949 0.000852843 0)
(-0.0522633 0.000844604 0)
(-0.0529232 0.000834424 0)
(-0.053573 0.000822123 0)
(-0.054211 0.000807514 0)
(-0.0548352 0.000790409 0)
(-0.0554436 0.000770612 0)
(-0.0560339 0.000747931 0)
(-0.0566037 0.000722169 0)
(-0.0571505 0.000693131 0)
(-0.0576716 0.000660626 0)
(-0.0581643 0.000624467 0)
(-0.0586256 0.000584473 0)
(-0.0590524 0.000540473 0)
(-0.0594415 0.000492305 0)
(-0.0597895 0.000439823 0)
(-0.0600931 0.000382897 0)
(-0.0603488 0.000321417 0)
(-0.0605529 0.000255296 0)
(-0.060702 0.000184473 0)
(-0.0607923 0.000108916 0)
(-0.0608201 2.86277e-05 0)
(-0.060782 -5.63532e-05 0)
(-0.0606743 -0.000145948 0)
(-0.0604935 -0.000240034 0)
(-0.0602364 -0.000338443 0)
(-0.0598997 -0.000440956 0)
(-0.0594805 -0.000547299 0)
(-0.0589761 -0.000657147 0)
(-0.0583839 -0.000770115 0)
(-0.0577019 -0.00088576 0)
(-0.0569283 -0.00100358 0)
(-0.0560618 -0.00112301 0)
(-0.0551016 -0.00124343 0)
(-0.0540472 -0.00136416 0)
(-0.0528989 -0.00148446 0)
(-0.0516574 -0.00160355 0)
(-0.0503243 -0.00172057 0)
(-0.0489014 -0.00183466 0)
(-0.0473917 -0.0019449 0)
(-0.0457985 -0.00205033 0)
(-0.0441261 -0.00214998 0)
(-0.0423794 -0.00224288 0)
(-0.0405641 -0.00232804 0)
(-0.0386867 -0.00240449 0)
(-0.0367543 -0.00247127 0)
(-0.0347748 -0.00252745 0)
(-0.0327567 -0.00257217 0)
(-0.0307093 -0.0026046 0)
(-0.0286423 -0.00262397 0)
(-0.0265661 -0.00262963 0)
(-0.0244915 -0.00262096 0)
(-0.0224297 -0.0025975 0)
(-0.0203922 -0.00255886 0)
(-0.0183907 -0.00250476 0)
(-0.0164372 -0.00243508 0)
(-0.0145436 -0.00234978 0)
(-0.0127218 -0.00224898 0)
(-0.0109835 -0.00213295 0)
(-0.00933995 -0.0020021 0)
(-0.00780226 -0.00185698 0)
(-0.00638077 -0.00169835 0)
(-0.00508509 -0.00152719 0)
(-0.00392389 -0.00134474 0)
(-0.00290459 -0.0011526 0)
(-0.00203307 -0.000952907 0)
(-0.00131316 -0.000748521 0)
(-0.000746028 -0.000543437 0)
(-0.000329282 -0.000343361 0)
(-5.57951e-05 -0.00015663 0)
(8.7696e-05 4.42678e-06 0)
(0.000122596 0.000121678 0)
(8.41996e-05 0.000168859 0)
(2.61203e-05 0.000108229 0)
(1.12518e-05 -7.37237e-05 0)
(3.79039e-05 -0.000126297 0)
(5.88577e-05 -0.00011057 0)
(4.95614e-05 -4.74e-05 0)
(-6.36628e-06 4.80654e-05 0)
(-0.00011919 0.000164088 0)
(-0.000295609 0.000291726 0)
(-0.000539394 0.000424414 0)
(-0.000851908 0.000557373 0)
(-0.00123268 0.000687207 0)
(-0.00167983 0.000811557 0)
(-0.00219048 0.000928828 0)
(-0.00276103 0.00103801 0)
(-0.0033874 0.00113853 0)
(-0.00406525 0.00123012 0)
(-0.00479009 0.00131279 0)
(-0.00555741 0.00138671 0)
(-0.00636279 0.00145219 0)
(-0.00720193 0.00150962 0)
(-0.00807074 0.00155948 0)
(-0.00896531 0.00160227 0)
(-0.00988203 0.00163852 0)
(-0.0108175 0.00166877 0)
(-0.0117686 0.00169356 0)
(-0.0127326 0.00171341 0)
(-0.0137067 0.00172883 0)
(-0.0146888 0.0017403 0)
(-0.0156767 0.00174828 0)
(-0.0166686 0.00175319 0)
(-0.0176628 0.00175544 0)
(-0.0186579 0.00175539 0)
(-0.0196527 0.00175338 0)
(-0.0206462 0.00174971 0)
(-0.0216374 0.00174467 0)
(-0.0226256 0.00173851 0)
(-0.0236102 0.00173145 0)
(-0.0245906 0.0017237 0)
(-0.0255665 0.00171543 0)
(-0.0265376 0.00170682 0)
(-0.0275037 0.00169799 0)
(-0.0284647 0.00168908 0)
(-0.0294204 0.0016802 0)
(-0.030371 0.00167145 0)
(-0.0313164 0.00166292 0)
(-0.0322568 0.00165467 0)
(-0.0331923 0.00164678 0)
(-0.0341231 0.00163932 0)
(-0.0350494 0.00163232 0)
(-0.0359715 0.00162585 0)
(-0.0368896 0.00161993 0)
(-0.0378041 0.0016146 0)
(-0.0387152 0.0016099 0)
(-0.0396233 0.00160586 0)
(-0.0405288 0.00160248 0)
(-0.041432 0.0015998 0)
(-0.0423333 0.00159782 0)
(-0.043233 0.00159655 0)
(-0.0441315 0.001596 0)
(-0.0450293 0.00159617 0)
(-0.0459266 0.00159705 0)
(-0.046824 0.00159863 0)
(-0.0477216 0.00160089 0)
(-0.0486199 0.0016038 0)
(-0.0495192 0.00160734 0)
(-0.0504198 0.00161147 0)
(-0.051322 0.00161614 0)
(-0.0522261 0.00162129 0)
(-0.0531323 0.00162687 0)
(-0.0540407 0.00163279 0)
(-0.0549516 0.00163898 0)
(-0.0558649 0.00164534 0)
(-0.0567807 0.00165176 0)
(-0.057699 0.00165812 0)
(-0.0586197 0.00166431 0)
(-0.0595426 0.00167016 0)
(-0.0604674 0.00167554 0)
(-0.0613938 0.00168025 0)
(-0.0623212 0.00168413 0)
(-0.0632493 0.00168698 0)
(-0.0641772 0.00168857 0)
(-0.0651042 0.00168869 0)
(-0.0660293 0.00168709 0)
(-0.0669515 0.00168351 0)
(-0.0678696 0.00167768 0)
(-0.0687822 0.00166931 0)
(-0.0696877 0.00165812 0)
(-0.0705846 0.00164378 0)
(-0.0714709 0.00162597 0)
(-0.0723446 0.00160435 0)
(-0.0732035 0.00157859 0)
(-0.0740452 0.00154831 0)
(-0.074867 0.00151317 0)
(-0.0756663 0.00147278 0)
(-0.0764399 0.0014268 0)
(-0.0771847 0.00137484 0)
(-0.0778975 0.00131654 0)
(-0.0785745 0.00125154 0)
(-0.079212 0.0011795 0)
(-0.0798062 0.00110007 0)
(-0.080353 0.00101293 0)
(-0.0808481 0.000917803 0)
(-0.0812871 0.00081441 0)
(-0.0816656 0.00070252 0)
(-0.081979 0.00058194 0)
(-0.0822227 0.000452519 0)
(-0.0823918 0.000314159 0)
(-0.0824816 0.000166818 0)
(-0.0824875 1.05206e-05 0)
(-0.0824048 -0.00015464 0)
(-0.0822288 -0.000328492 0)
(-0.0819551 -0.000510784 0)
(-0.0815794 -0.000701174 0)
(-0.0810978 -0.000899224 0)
(-0.0805063 -0.0011044 0)
(-0.0798015 -0.00131606 0)
(-0.0789804 -0.00153345 0)
(-0.0780404 -0.00175573 0)
(-0.0769793 -0.00198191 0)
(-0.0757955 -0.00221092 0)
(-0.074488 -0.00244157 0)
(-0.0730566 -0.00267256 0)
(-0.0715017 -0.00290249 0)
(-0.0698244 -0.00312985 0)
(-0.0680267 -0.00335306 0)
(-0.0661115 -0.00357045 0)
(-0.0640826 -0.00378028 0)
(-0.0619445 -0.00398077 0)
(-0.0597029 -0.0041701 0)
(-0.0573644 -0.00434641 0)
(-0.0549365 -0.00450785 0)
(-0.0524277 -0.00465261 0)
(-0.0498473 -0.00477888 0)
(-0.0472057 -0.00488494 0)
(-0.0445141 -0.00496916 0)
(-0.0417845 -0.00502998 0)
(-0.0390297 -0.005066 0)
(-0.0362631 -0.00507596 0)
(-0.0334988 -0.00505877 0)
(-0.0307514 -0.00501352 0)
(-0.0280358 -0.00493952 0)
(-0.0253672 -0.0048363 0)
(-0.0227611 -0.0047036 0)
(-0.020233 -0.00454145 0)
(-0.017798 -0.00435012 0)
(-0.0154714 -0.00413016 0)
(-0.0132676 -0.00388242 0)
(-0.0112007 -0.00360811 0)
(-0.00928389 -0.00330878 0)
(-0.00752922 -0.00298645 0)
(-0.00594746 -0.00264369 0)
(-0.00454768 -0.00228378 0)
(-0.00333685 -0.00191099 0)
(-0.00231926 -0.00153093 0)
(-0.00149587 -0.00115113 0)
(-0.000863386 -0.000781943 0)
(-0.000413126 -0.000437697 0)
(-0.000129776 -0.000138505 0)
(1.02932e-05 8.77049e-05 0)
(4.28865e-05 0.000202442 0)
(1.88661e-05 0.0001499 0)
(7.89354e-06 -9.15393e-05 0)
(1.89051e-05 -0.000142563 0)
(7.89419e-06 -9.97767e-05 0)
(-4.73057e-05 8.56546e-06 0)
(-0.000162287 0.000162191 0)
(-0.000347362 0.000345197 0)
(-0.000609268 0.000545247 0)
(-0.000951791 0.000752993 0)
(-0.00137628 0.000961471 0)
(-0.00188211 0.00116559 0)
(-0.00246718 0.00136169 0)
(-0.0031282 0.00154723 0)
(-0.0038611 0.00172055 0)
(-0.00466119 0.00188065 0)
(-0.00552346 0.00202702 0)
(-0.00644269 0.00215955 0)
(-0.00741359 0.00227844 0)
(-0.00843095 0.00238408 0)
(-0.00948966 0.00247705 0)
(-0.0105848 0.00255803 0)
(-0.0117118 0.00262776 0)
(-0.0128662 0.00268706 0)
(-0.014044 0.00273675 0)
(-0.0152413 0.00277765 0)
(-0.0164546 0.00281057 0)
(-0.0176809 0.00283631 0)
(-0.0189171 0.00285562 0)
(-0.0201608 0.00286923 0)
(-0.0214097 0.00287781 0)
(-0.0226616 0.00288199 0)
(-0.0239149 0.00288237 0)
(-0.0251679 0.00287948 0)
(-0.0264193 0.00287383 0)
(-0.0276679 0.00286585 0)
(-0.0289128 0.00285596 0)
(-0.0301532 0.00284452 0)
(-0.0313883 0.00283188 0)
(-0.0326177 0.00281832 0)
(-0.033841 0.00280411 0)
(-0.0350578 0.00278949 0)
(-0.036268 0.00277467 0)
(-0.0374715 0.00275983 0)
(-0.0386682 0.00274514 0)
(-0.0398582 0.00273074 0)
(-0.0410416 0.00271676 0)
(-0.0422185 0.00270332 0)
(-0.0433892 0.00269052 0)
(-0.0445538 0.00267845 0)
(-0.0457127 0.00266718 0)
(-0.0468663 0.00265678 0)
(-0.0480148 0.00264732 0)
(-0.0491586 0.00263884 0)
(-0.0502981 0.0026314 0)
(-0.0514339 0.00262501 0)
(-0.0525662 0.00261973 0)
(-0.0536955 0.00261556 0)
(-0.0548223 0.00261252 0)
(-0.055947 0.00261062 0)
(-0.0570701 0.00260986 0)
(-0.0581921 0.00261022 0)
(-0.0593134 0.00261169 0)
(-0.0604343 0.00261423 0)
(-0.0615554 0.0026178 0)
(-0.062677 0.00262235 0)
(-0.0637995 0.00262781 0)
(-0.0649232 0.00263411 0)
(-0.0660485 0.00264116 0)
(-0.0671755 0.00264884 0)
(-0.0683044 0.00265704 0)
(-0.0694355 0.00266562 0)
(-0.0705688 0.00267442 0)
(-0.0717042 0.00268326 0)
(-0.0728418 0.00269196 0)
(-0.0739814 0.0027003 0)
(-0.0751226 0.00270805 0)
(-0.0762652 0.00271495 0)
(-0.0774086 0.00272072 0)
(-0.0785523 0.00272507 0)
(-0.0796955 0.00272767 0)
(-0.0808374 0.00272817 0)
(-0.0819769 0.00272621 0)
(-0.0831128 0.00272139 0)
(-0.0842438 0.00271331 0)
(-0.0853685 0.00270152 0)
(-0.0864849 0.00268556 0)
(-0.0875913 0.00266495 0)
(-0.0886855 0.0026392 0)
(-0.0897653 0.00260778 0)
(-0.090828 0.00257016 0)
(-0.091871 0.00252577 0)
(-0.0928911 0.00247407 0)
(-0.0938854 0.00241447 0)
(-0.0948502 0.0023464 0)
(-0.0957819 0.00226927 0)
(-0.0966766 0.0021825 0)
(-0.0975302 0.00208551 0)
(-0.0983384 0.00197775 0)
(-0.0990965 0.00185867 0)
(-0.0997999 0.00172774 0)
(-0.100443 0.00158448 0)
(-0.101022 0.00142844 0)
(-0.101531 0.0012592 0)
(-0.101964 0.00107642 0)
(-0.102315 0.00087981 0)
(-0.10258 0.000669158 0)
(-0.102753 0.000444331 0)
(-0.102828 0.000205289 0)
(-0.102798 -4.79047e-05 0)
(-0.10266 -0.000315073 0)
(-0.102407 -0.000595918 0)
(-0.102034 -0.00089001 0)
(-0.101535 -0.00119678 0)
(-0.100907 -0.0015155 0)
(-0.100145 -0.00184531 0)
(-0.0992442 -0.00218515 0)
(-0.0982017 -0.00253383 0)
(-0.0970143 -0.00288996 0)
(-0.0956797 -0.00325199 0)
(-0.0941961 -0.00361819 0)
(-0.0925625 -0.00398667 0)
(-0.0907787 -0.00435535 0)
(-0.0888453 -0.004722 0)
(-0.0867639 -0.00508427 0)
(-0.0845372 -0.00543962 0)
(-0.0821686 -0.00578543 0)
(-0.0796627 -0.00611897 0)
(-0.0770254 -0.00643741 0)
(-0.0742634 -0.0067379 0)
(-0.0713848 -0.00701751 0)
(-0.0683986 -0.00727336 0)
(-0.0653151 -0.00750258 0)
(-0.0621456 -0.00770236 0)
(-0.0589026 -0.00786999 0)
(-0.0555995 -0.0080029 0)
(-0.0522508 -0.00809868 0)
(-0.0488718 -0.00815514 0)
(-0.0454785 -0.00817031 0)
(-0.0420879 -0.00814249 0)
(-0.0387173 -0.00807028 0)
(-0.0353847 -0.00795262 0)
(-0.0321082 -0.00778879 0)
(-0.0289062 -0.00757846 0)
(-0.0257971 -0.0073217 0)
(-0.0227992 -0.00701901 0)
(-0.0199303 -0.00667137 0)
(-0.0172076 -0.00628024 0)
(-0.0146478 -0.00584763 0)
(-0.0122662 -0.00537619 0)
(-0.010077 -0.00486931 0)
(-0.00809254 -0.00433126 0)
(-0.00632332 -0.00376744 0)
(-0.00477718 -0.00318476 0)
(-0.00345891 -0.0025921 0)
(-0.00236953 -0.00200106 0)
(-0.00150549 -0.00142697 0)
(-0.000857755 -0.000890379 0)
(-0.000410636 -0.000418929 0)
(-0.000140495 -4.9605e-05 0)
(-1.46886e-05 0.000168256 0)
(8.39822e-06 0.000164038 0)
(3.65956e-06 -9.76904e-05 0)
(-5.32685e-06 -0.000129586 0)
(-5.65767e-05 -4.45569e-05 0)
(-0.000167786 0.000122997 0)
(-0.000352625 0.000348133 0)
(-0.000620721 0.000611064 0)
(-0.000978296 0.000896193 0)
(-0.00142873 0.00119148 0)
(-0.001973 0.00148776 0)
(-0.0026102 0.00177818 0)
(-0.00333786 0.00205773 0)
(-0.0041523 0.00232283 0)
(-0.00504897 0.00257109 0)
(-0.00602269 0.00280097 0)
(-0.00706786 0.0030117 0)
(-0.00817864 0.003203 0)
(-0.00934911 0.00337505 0)
(-0.0105734 0.00352833 0)
(-0.0118457 0.00366359 0)
(-0.0131604 0.00378171 0)
(-0.0145123 0.00388373 0)
(-0.0158963 0.00397073 0)
(-0.0173077 0.00404385 0)
(-0.0187421 0.00410425 0)
(-0.0201955 0.00415306 0)
(-0.0216642 0.00419139 0)
(-0.0231447 0.00422033 0)
(-0.0246342 0.00424089 0)
(-0.0261298 0.00425404 0)
(-0.0276291 0.00426069 0)
(-0.02913 0.00426169 0)
(-0.0306306 0.00425781 0)
(-0.0321294 0.00424977 0)
(-0.0336248 0.00423823 0)
(-0.0351156 0.00422378 0)
(-0.036601 0.00420697 0)
(-0.0380801 0.00418828 0)
(-0.0395522 0.00416815 0)
(-0.0410167 0.00414696 0)
(-0.0424734 0.00412508 0)
(-0.0439219 0.00410282 0)
(-0.0453621 0.00408044 0)
(-0.0467939 0.0040582 0)
(-0.0482173 0.00403632 0)
(-0.0496324 0.00401499 0)
(-0.0510394 0.00399438 0)
(-0.0524384 0.00397465 0)
(-0.0538298 0.00395593 0)
(-0.0552139 0.00393834 0)
(-0.056591 0.00392199 0)
(-0.0579615 0.00390695 0)
(-0.0593259 0.00389332 0)
(-0.0606846 0.00388116 0)
(-0.0620381 0.00387052 0)
(-0.0633868 0.00386145 0)
(-0.0647313 0.00385398 0)
(-0.0660721 0.00384812 0)
(-0.0674098 0.00384389 0)
(-0.0687447 0.00384129 0)
(-0.0700776 0.00384029 0)
(-0.0714087 0.00384087 0)
(-0.0727387 0.00384297 0)
(-0.0740681 0.00384653 0)
(-0.0753972 0.00385148 0)
(-0.0767264 0.00385772 0)
(-0.0780562 0.00386512 0)
(-0.0793868 0.00387356 0)
(-0.0807186 0.00388287 0)
(-0.0820517 0.00389287 0)
(-0.0833862 0.00390336 0)
(-0.0847224 0.0039141 0)
(-0.08606 0.00392483 0)
(-0.087399 0.00393528 0)
(-0.0887392 0.00394512 0)
(-0.0900802 0.00395401 0)
(-0.0914216 0.00396158 0)
(-0.0927627 0.00396741 0)
(-0.0941029 0.00397107 0)
(-0.0954412 0.0039721 0)
(-0.0967765 0.00396998 0)
(-0.0981077 0.00396417 0)
(-0.0994333 0.00395411 0)
(-0.100752 0.00393919 0)
(-0.102061 0.00391878 0)
(-0.103359 0.00389222 0)
(-0.104644 0.0038588 0)
(-0.105913 0.00381781 0)
(-0.107163 0.00376849 0)
(-0.108392 0.00371008 0)
(-0.109596 0.00364177 0)
(-0.110772 0.00356277 0)
(-0.111915 0.00347224 0)
(-0.113022 0.00336937 0)
(-0.114089 0.00325332 0)
(-0.115111 0.00312326 0)
(-0.116083 0.00297839 0)
(-0.117001 0.0028179 0)
(-0.117858 0.00264104 0)
(-0.118649 0.00244706 0)
(-0.119369 0.00223529 0)
(-0.120012 0.0020051 0)
(-0.120572 0.00175594 0)
(-0.121042 0.00148732 0)
(-0.121416 0.00119886 0)
(-0.121687 0.000890285 0)
(-0.12185 0.000561441 0)
(-0.121898 0.000212304 0)
(-0.121823 -0.000157003 0)
(-0.121621 -0.000546192 0)
(-0.121285 -0.000954803 0)
(-0.120808 -0.00138218 0)
(-0.120186 -0.00182748 0)
(-0.119413 -0.00228964 0)
(-0.118483 -0.00276737 0)
(-0.117393 -0.00325916 0)
(-0.116138 -0.00376324 0)
(-0.114716 -0.00427763 0)
(-0.113123 -0.00480008 0)
(-0.111358 -0.0053281 0)
(-0.10942 -0.00585897 0)
(-0.107308 -0.00638973 0)
(-0.105024 -0.00691719 0)
(-0.102569 -0.00743796 0)
(-0.0999474 -0.00794845 0)
(-0.0971622 -0.00844493 0)
(-0.0942193 -0.0089235 0)
(-0.0911252 -0.00938014 0)
(-0.087888 -0.0098108 0)
(-0.0845167 -0.0102113 0)
(-0.0810218 -0.0105777 0)
(-0.0774152 -0.0109057 0)
(-0.0737099 -0.0111915 0)
(-0.0699199 -0.0114312 0)
(-0.0660609 -0.0116211 0)
(-0.0621491 -0.0117579 0)
(-0.0582022 -0.0118385 0)
(-0.0542385 -0.01186 0)
(-0.0502771 -0.0118202 0)
(-0.046338 -0.011717 0)
(-0.0424415 -0.0115489 0)
(-0.0386083 -0.011315 0)
(-0.0348594 -0.0110149 0)
(-0.0312156 -0.0106487 0)
(-0.0276976 -0.0102172 0)
(-0.0243256 -0.00972193 0)
(-0.0211193 -0.00916511 0)
(-0.0180972 -0.00854975 0)
(-0.0152767 -0.0078798 0)
(-0.0126736 -0.00716029 0)
(-0.0103019 -0.00639749 0)
(-0.00817319 -0.00559927 0)
(-0.00629619 -0.0047755 0)
(-0.00467639 -0.00393864 0)
(-0.00331531 -0.00310455 0)
(-0.00220987 -0.00229366 0)
(-0.00135168 -0.00153246 0)
(-0.000726051 -0.000855506 0)
(-0.000311019 -0.000307645 0)
(-7.95832e-05 5.29645e-05 0)
(-3.12323e-06 0.000145175 0)
(-9.84388e-07 -9.02727e-05 0)
(-3.25867e-05 -8.21342e-05 0)
(-0.000129578 6.25541e-05 0)
(-0.000303991 0.000304629 0)
(-0.000566668 0.000615158 0)
(-0.000926029 0.000970896 0)
(-0.00138731 0.00135326 0)
(-0.00195307 0.0017477 0)
(-0.00262369 0.00214294 0)
(-0.00339772 0.00253042 0)
(-0.00427219 0.00290374 0)
(-0.00524299 0.00325829 0)
(-0.00630508 0.00359088 0)
(-0.00745277 0.00389945 0)
(-0.00867995 0.00418287 0)
(-0.00998023 0.00444069 0)
(-0.0113471 0.00467305 0)
(-0.0127742 0.0048805 0)
(-0.0142551 0.00506395 0)
(-0.0157836 0.00522451 0)
(-0.0173539 0.00536349 0)
(-0.0189603 0.00548228 0)
(-0.0205977 0.00558237 0)
(-0.0222611 0.00566524 0)
(-0.0239459 0.00573241 0)
(-0.0256481 0.00578533 0)
(-0.0273637 0.00582542 0)
(-0.0290894 0.00585405 0)
(-0.0308221 0.00587251 0)
(-0.0325589 0.00588202 0)
(-0.0342975 0.0058837 0)
(-0.0360356 0.00587861 0)
(-0.0377714 0.00586772 0)
(-0.0395032 0.00585192 0)
(-0.0412296 0.00583202 0)
(-0.0429495 0.00580876 0)
(-0.0446619 0.00578281 0)
(-0.046366 0.00575475 0)
(-0.0480611 0.00572515 0)
(-0.0497468 0.00569447 0)
(-0.0514227 0.00566316 0)
(-0.0530886 0.00563159 0)
(-0.0547444 0.00560012 0)
(-0.05639 0.00556904 0)
(-0.0580256 0.00553863 0)
(-0.0596513 0.00550914 0)
(-0.0612673 0.00548077 0)
(-0.0628738 0.00545372 0)
(-0.0644713 0.00542815 0)
(-0.0660602 0.00540421 0)
(-0.0676407 0.00538203 0)
(-0.0692135 0.00536171 0)
(-0.070779 0.00534335 0)
(-0.0723378 0.00532702 0)
(-0.0738903 0.00531279 0)
(-0.0754372 0.0053007 0)
(-0.076979 0.00529077 0)
(-0.0785163 0.00528302 0)
(-0.0800496 0.00527744 0)
(-0.0815796 0.00527401 0)
(-0.0831068 0.00527267 0)
(-0.0846318 0.00527336 0)
(-0.0861549 0.005276 0)
(-0.0876768 0.00528047 0)
(-0.0891979 0.00528663 0)
(-0.0907185 0.00529432 0)
(-0.0922391 0.00530334 0)
(-0.0937598 0.00531349 0)
(-0.095281 0.0053245 0)
(-0.0968027 0.00533609 0)
(-0.0983249 0.00534793 0)
(-0.0998477 0.00535968 0)
(-0.101371 0.00537094 0)
(-0.102894 0.00538128 0)
(-0.104417 0.00539022 0)
(-0.105939 0.00539725 0)
(-0.107459 0.00540181 0)
(-0.108977 0.00540331 0)
(-0.110491 0.0054011 0)
(-0.112 0.00539449 0)
(-0.113503 0.00538276 0)
(-0.114998 0.00536512 0)
(-0.116484 0.00534076 0)
(-0.117957 0.00530883 0)
(-0.119416 0.00526841 0)
(-0.120859 0.00521857 0)
(-0.122281 0.00515835 0)
(-0.123681 0.00508671 0)
(-0.125055 0.00500264 0)
(-0.126398 0.00490506 0)
(-0.127708 0.00479289 0)
(-0.12898 0.00466504 0)
(-0.130209 0.0045204 0)
(-0.13139 0.00435787 0)
(-0.132519 0.00417634 0)
(-0.133589 0.00397475 0)
(-0.134596 0.00375204 0)
(-0.135533 0.00350721 0)
(-0.136395 0.00323929 0)
(-0.137174 0.00294739 0)
(-0.137864 0.00263071 0)
(-0.138459 0.00228853 0)
(-0.138952 0.00192023 0)
(-0.139335 0.00152534 0)
(-0.139601 0.00110353 0)
(-0.139743 0.000654625 0)
(-0.139755 0.000178632 0)
(-0.139629 -0.000324239 0)
(-0.139358 -0.000853564 0)
(-0.138935 -0.00140869 0)
(-0.138354 -0.00198869 0)
(-0.137609 -0.00259241 0)
(-0.136693 -0.00321837 0)
(-0.135603 -0.00386483 0)
(-0.134331 -0.00452971 0)
(-0.132875 -0.00521066 0)
(-0.131232 -0.00590496 0)
(-0.129397 -0.00660961 0)
(-0.127369 -0.00732126 0)
(-0.125148 -0.00803626 0)
(-0.122733 -0.00875065 0)
(-0.120126 -0.00946016 0)
(-0.117328 -0.0101603 0)
(-0.114344 -0.0108462 0)
(-0.111177 -0.011513 0)
(-0.107835 -0.0121555 0)
(-0.104324 -0.0127682 0)
(-0.100653 -0.0133459 0)
(-0.0968329 -0.0138831 0)
(-0.0928749 -0.0143742 0)
(-0.0887921 -0.014814 0)
(-0.0845989 -0.015197 0)
(-0.0803111 -0.0155184 0)