/*--------------------------------*- C++ -*----------------------------------*\
  =========                 |
  \\      /  F ield         | OpenFOAM: The Open Source CFD Toolbox
   \\    /   O peration     | Website:  https://openfoam.org
    \\  /    A nd           | Version:  7
     \\/     M anipulation  |
\*---------------------------------------------------------------------------*/
FoamFile
{
    version     2.0;
    format      ascii;
    class       volVectorField;
    location    "0.4125";
    object      U;
}
// * * * * * * * * * * * * * * * * * * * * * * * * * * * * * * * * * * * * * //

dimensions      [0 1 -1 0 0 0 0];

internalField   nonuniform List<vector> 
51200
(
(-9.91954e-09 9.35642e-09 0)
(-5.05574e-08 2.59791e-08 0)
(-1.17175e-07 3.11425e-08 0)
(-1.82612e-07 2.80975e-08 0)
(-2.29036e-07 2.03594e-08 0)
(-2.47861e-07 1.01204e-08 0)
(-2.3477e-07 -1.0951e-09 0)
(-1.8732e-07 -1.24379e-08 0)
(-1.04329e-07 -2.36817e-08 0)
(1.40905e-08 -3.47472e-08 0)
(1.66831e-07 -4.53619e-08 0)
(3.52521e-07 -5.52742e-08 0)
(5.69927e-07 -6.45322e-08 0)
(8.17683e-07 -7.33506e-08 0)
(1.094e-06 -8.1778e-08 0)
(1.39685e-06 -8.96282e-08 0)
(1.72439e-06 -9.67281e-08 0)
(2.07507e-06 -1.03124e-07 0)
(2.44739e-06 -1.09019e-07 0)
(2.83965e-06 -1.14551e-07 0)
(3.24996e-06 -1.19683e-07 0)
(3.67652e-06 -1.24294e-07 0)
(4.11775e-06 -1.28324e-07 0)
(4.5723e-06 -1.31839e-07 0)
(5.03881e-06 -1.34952e-07 0)
(5.51585e-06 -1.37721e-07 0)
(6.00194e-06 -1.40122e-07 0)
(6.49568e-06 -1.42115e-07 0)
(6.99584e-06 -1.43713e-07 0)
(7.50127e-06 -1.44974e-07 0)
(8.01082e-06 -1.45942e-07 0)
(8.52331e-06 -1.46612e-07 0)
(9.03766e-06 -1.46966e-07 0)
(9.55288e-06 -1.47004e-07 0)
(1.00681e-05 -1.46755e-07 0)
(1.05823e-05 -1.46262e-07 0)
(1.10946e-05 -1.45553e-07 0)
(1.16042e-05 -1.44631e-07 0)
(1.21102e-05 -1.43484e-07 0)
(1.26119e-05 -1.421e-07 0)
(1.31086e-05 -1.4049e-07 0)
(1.35995e-05 -1.38688e-07 0)
(1.40842e-05 -1.3673e-07 0)
(1.45619e-05 -1.34634e-07 0)
(1.5032e-05 -1.32397e-07 0)
(1.54941e-05 -1.30009e-07 0)
(1.59474e-05 -1.27461e-07 0)
(1.63917e-05 -1.24755e-07 0)
(1.68264e-05 -1.21908e-07 0)
(1.72511e-05 -1.1895e-07 0)
(1.76655e-05 -1.15908e-07 0)
(1.80691e-05 -1.12785e-07 0)
(1.84614e-05 -1.09566e-07 0)
(1.88423e-05 -1.06242e-07 0)
(1.92113e-05 -1.02822e-07 0)
(1.95682e-05 -9.93207e-08 0)
(1.99127e-05 -9.57485e-08 0)
(2.02445e-05 -9.21106e-08 0)
(2.05635e-05 -8.8412e-08 0)
(2.08694e-05 -8.46572e-08 0)
(2.11619e-05 -8.08485e-08 0)
(2.14409e-05 -7.69863e-08 0)
(2.17061e-05 -7.30736e-08 0)
(2.19575e-05 -6.91167e-08 0)
(2.21949e-05 -6.51206e-08 0)
(2.24182e-05 -6.10874e-08 0)
(2.26271e-05 -5.70213e-08 0)
(2.28217e-05 -5.29289e-08 0)
(2.30017e-05 -4.88132e-08 0)
(2.31672e-05 -4.46719e-08 0)
(2.33179e-05 -4.05042e-08 0)
(2.34538e-05 -3.63149e-08 0)
(2.35749e-05 -3.21098e-08 0)
(2.36811e-05 -2.78909e-08 0)
(2.37723e-05 -2.36582e-08 0)
(2.38486e-05 -1.94136e-08 0)
(2.39098e-05 -1.51605e-08 0)
(2.3956e-05 -1.0901e-08 0)
(2.3987e-05 -6.63563e-09 0)
(2.40029e-05 -2.36646e-09 0)
(2.40037e-05 1.90383e-09 0)
(2.39893e-05 6.17538e-09 0)
(2.39598e-05 1.04509e-08 0)
(2.39152e-05 1.47292e-08 0)
(2.38555e-05 1.90017e-08 0)
(2.37807e-05 2.3259e-08 0)
(2.36909e-05 2.75009e-08 0)
(2.3586e-05 3.17342e-08 0)
(2.34661e-05 3.59608e-08 0)
(2.33314e-05 4.01721e-08 0)
(2.31818e-05 4.43571e-08 0)
(2.30174e-05 4.8514e-08 0)
(2.28384e-05 5.26491e-08 0)
(2.26448e-05 5.67668e-08 0)
(2.24367e-05 6.08627e-08 0)
(2.22142e-05 6.49251e-08 0)
(2.19774e-05 6.89431e-08 0)
(2.17266e-05 7.29155e-08 0)
(2.14617e-05 7.68497e-08 0)
(2.11831e-05 8.07489e-08 0)
(2.08908e-05 8.46017e-08 0)
(2.05852e-05 8.83932e-08 0)
(2.02663e-05 9.21216e-08 0)
(1.99343e-05 9.57912e-08 0)
(1.95896e-05 9.93925e-08 0)
(1.92325e-05 1.02908e-07 0)
(1.88631e-05 1.06339e-07 0)
(1.84817e-05 1.09704e-07 0)
(1.80888e-05 1.12999e-07 0)
(1.76846e-05 1.16187e-07 0)
(1.72695e-05 1.1924e-07 0)
(1.6844e-05 1.22174e-07 0)
(1.64083e-05 1.25015e-07 0)
(1.59629e-05 1.27747e-07 0)
(1.55085e-05 1.30323e-07 0)
(1.50453e-05 1.32734e-07 0)
(1.4574e-05 1.35008e-07 0)
(1.4095e-05 1.37153e-07 0)
(1.36091e-05 1.39123e-07 0)
(1.31168e-05 1.40877e-07 0)
(1.26189e-05 1.42423e-07 0)
(1.21159e-05 1.43794e-07 0)
(1.16085e-05 1.44986e-07 0)
(1.10976e-05 1.45959e-07 0)
(1.05841e-05 1.4668e-07 0)
(1.00686e-05 1.47142e-07 0)
(9.55222e-06 1.47341e-07 0)
(9.03573e-06 1.47267e-07 0)
(8.52017e-06 1.4691e-07 0)
(8.00655e-06 1.46261e-07 0)
(7.49596e-06 1.45302e-07 0)
(6.98955e-06 1.44e-07 0)
(6.48845e-06 1.42343e-07 0)
(5.99388e-06 1.40337e-07 0)
(5.50711e-06 1.37966e-07 0)
(5.02951e-06 1.35184e-07 0)
(4.56246e-06 1.31958e-07 0)
(4.10732e-06 1.28303e-07 0)
(3.66557e-06 1.24233e-07 0)
(3.23878e-06 1.19713e-07 0)
(2.82857e-06 1.14684e-07 0)
(2.43656e-06 1.09126e-07 0)
(2.06437e-06 1.03056e-07 0)
(1.71371e-06 9.64644e-08 0)
(1.38637e-06 8.93049e-08 0)
(1.08412e-06 8.15558e-08 0)
(8.08646e-07 7.32422e-08 0)
(5.61692e-07 6.43815e-08 0)
(3.44991e-07 5.49459e-08 0)
(1.60148e-07 4.49186e-08 0)
(8.52829e-09 3.43647e-08 0)
(-1.08764e-07 2.34129e-08 0)
(-1.90897e-07 1.21697e-08 0)
(-2.37565e-07 7.37958e-10 0)
(-2.49569e-07 -1.05561e-08 0)
(-2.296e-07 -2.07769e-08 0)
(-1.82904e-07 -2.81976e-08 0)
(-1.18209e-07 -3.04064e-08 0)
(-5.22881e-08 -2.43273e-08 0)
(-1.07113e-08 -8.27967e-09 0)
(-2.6623e-08 4.96079e-08 0)
(-1.0949e-07 1.08591e-07 0)
(-2.24499e-07 1.20294e-07 0)
(-3.23485e-07 9.79094e-08 0)
(-3.73196e-07 5.37658e-08 0)
(-3.53738e-07 -3.77076e-09 0)
(-2.5289e-07 -6.85165e-08 0)
(-6.36947e-08 -1.36249e-07 0)
(2.17597e-07 -2.04711e-07 0)
(5.92265e-07 -2.72713e-07 0)
(1.05925e-06 -3.39162e-07 0)
(1.61586e-06 -4.02965e-07 0)
(2.25879e-06 -4.63581e-07 0)
(2.98464e-06 -5.21107e-07 0)
(3.78955e-06 -5.75674e-07 0)
(4.669e-06 -6.27045e-07 0)
(5.61809e-06 -6.74803e-07 0)
(6.63208e-06 -7.18805e-07 0)
(7.70655e-06 -7.5931e-07 0)
(8.83714e-06 -7.96677e-07 0)
(1.00193e-05 -8.31049e-07 0)
(1.12484e-05 -8.62329e-07 0)
(1.25198e-05 -8.90403e-07 0)
(1.38293e-05 -9.15338e-07 0)
(1.51731e-05 -9.37367e-07 0)
(1.65471e-05 -9.56716e-07 0)
(1.79475e-05 -9.73488e-07 0)
(1.93705e-05 -9.8769e-07 0)
(2.08123e-05 -9.99366e-07 0)
(2.22696e-05 -1.00866e-06 0)
(2.3739e-05 -1.01574e-06 0)
(2.52175e-05 -1.02071e-06 0)
(2.67019e-05 -1.02361e-06 0)
(2.81892e-05 -1.02447e-06 0)
(2.96768e-05 -1.0234e-06 0)
(3.11619e-05 -1.02052e-06 0)
(3.26421e-05 -1.01596e-06 0)
(3.41147e-05 -1.00982e-06 0)
(3.55776e-05 -1.00215e-06 0)
(3.70285e-05 -9.92988e-07 0)
(3.84652e-05 -9.82374e-07 0)
(3.98858e-05 -9.70393e-07 0)
(4.12884e-05 -9.57156e-07 0)
(4.26712e-05 -9.42762e-07 0)
(4.40325e-05 -9.27278e-07 0)
(4.53707e-05 -9.10748e-07 0)
(4.66843e-05 -8.93207e-07 0)
(4.79718e-05 -8.74684e-07 0)
(4.92319e-05 -8.55221e-07 0)
(5.04631e-05 -8.34891e-07 0)
(5.16645e-05 -8.13789e-07 0)
(5.28349e-05 -7.91981e-07 0)
(5.39731e-05 -7.69497e-07 0)
(5.50782e-05 -7.46352e-07 0)
(5.61491e-05 -7.22578e-07 0)
(5.7185e-05 -6.98219e-07 0)
(5.81851e-05 -6.73316e-07 0)
(5.91486e-05 -6.47903e-07 0)
(6.00749e-05 -6.22022e-07 0)
(6.09633e-05 -5.95714e-07 0)
(6.1813e-05 -5.69015e-07 0)
(6.26236e-05 -5.41946e-07 0)
(6.33945e-05 -5.14525e-07 0)
(6.41251e-05 -4.86777e-07 0)
(6.48151e-05 -4.58734e-07 0)
(6.54641e-05 -4.30419e-07 0)
(6.60715e-05 -4.01856e-07 0)
(6.66372e-05 -3.73071e-07 0)
(6.71607e-05 -3.44087e-07 0)
(6.76418e-05 -3.14918e-07 0)
(6.80802e-05 -2.85574e-07 0)
(6.84756e-05 -2.56078e-07 0)
(6.88279e-05 -2.26455e-07 0)
(6.91369e-05 -1.96719e-07 0)
(6.94023e-05 -1.6688e-07 0)
(6.96242e-05 -1.36948e-07 0)
(6.98022e-05 -1.06944e-07 0)
(6.99365e-05 -7.68878e-08 0)
(7.00268e-05 -4.67948e-08 0)
(7.00731e-05 -1.66745e-08 0)
(7.00754e-05 1.34621e-08 0)
(7.00337e-05 4.3604e-08 0)
(6.99479e-05 7.37438e-08 0)
(6.98182e-05 1.0387e-07 0)
(6.96445e-05 1.33958e-07 0)
(6.9427e-05 1.63974e-07 0)
(6.91657e-05 1.93897e-07 0)
(6.88608e-05 2.2373e-07 0)
(6.85123e-05 2.53474e-07 0)
(6.81205e-05 2.83109e-07 0)
(6.76856e-05 3.126e-07 0)
(6.72078e-05 3.41915e-07 0)
(6.66873e-05 3.71047e-07 0)
(6.61245e-05 3.99993e-07 0)
(6.55195e-05 4.28738e-07 0)
(6.48729e-05 4.5725e-07 0)
(6.41848e-05 4.85488e-07 0)
(6.34559e-05 5.13417e-07 0)
(6.26865e-05 5.41028e-07 0)
(6.18771e-05 5.68314e-07 0)
(6.10282e-05 5.95245e-07 0)
(6.01404e-05 6.2177e-07 0)
(5.92144e-05 6.47849e-07 0)
(5.82507e-05 6.73468e-07 0)
(5.72502e-05 6.98594e-07 0)
(5.62135e-05 7.23164e-07 0)
(5.51416e-05 7.4713e-07 0)
(5.40353e-05 7.70493e-07 0)
(5.28956e-05 7.93243e-07 0)
(5.17234e-05 8.15298e-07 0)
(5.05199e-05 8.36548e-07 0)
(4.92863e-05 8.56948e-07 0)
(4.80237e-05 8.76519e-07 0)
(4.67333e-05 8.95231e-07 0)
(4.54167e-05 9.12967e-07 0)
(4.40753e-05 9.29626e-07 0)
(4.27107e-05 9.45197e-07 0)
(4.13243e-05 9.59683e-07 0)
(3.9918e-05 9.72992e-07 0)
(3.84937e-05 9.84978e-07 0)
(3.70533e-05 9.95558e-07 0)
(3.55988e-05 1.00473e-06 0)
(3.41322e-05 1.01246e-06 0)
(3.26557e-05 1.01866e-06 0)
(3.11719e-05 1.02319e-06 0)
(2.96831e-05 1.02597e-06 0)
(2.81919e-05 1.02692e-06 0)
(2.67009e-05 1.02595e-06 0)
(2.52131e-05 1.02299e-06 0)
(2.37314e-05 1.01796e-06 0)
(2.22587e-05 1.01077e-06 0)
(2.07985e-05 1.00129e-06 0)
(1.9354e-05 9.89416e-07 0)
(1.79287e-05 9.75073e-07 0)
(1.65261e-05 9.58195e-07 0)
(1.51501e-05 9.38641e-07 0)
(1.38046e-05 9.16252e-07 0)
(1.24936e-05 8.9095e-07 0)
(1.12211e-05 8.62717e-07 0)
(9.99145e-06 8.31466e-07 0)
(8.80901e-06 7.97033e-07 0)
(7.67833e-06 7.59297e-07 0)
(6.60391e-06 7.18238e-07 0)
(5.5903e-06 6.73839e-07 0)
(4.6422e-06 6.26022e-07 0)
(3.76429e-06 5.7473e-07 0)
(2.96107e-06 5.20037e-07 0)
(2.23684e-06 4.62105e-07 0)
(1.59573e-06 4.01083e-07 0)
(1.04153e-06 3.37169e-07 0)
(5.77347e-07 2.70813e-07 0)
(2.05236e-07 2.02826e-07 0)
(-7.40043e-08 1.34333e-07 0)
(-2.61155e-07 6.67287e-08 0)
(-3.59419e-07 2.11069e-09 0)
(-3.76036e-07 -5.57384e-08 0)
(-3.24232e-07 -1.00173e-07 0)
(-2.25091e-07 -1.21367e-07 0)
(-1.11495e-07 -1.0721e-07 0)
(-2.80833e-08 -4.77046e-08 0)
(-3.16427e-08 1.16801e-07 0)
(-1.21308e-07 2.24425e-07 0)
(-2.29873e-07 2.29482e-07 0)
(-2.99109e-07 1.60494e-07 0)
(-2.89402e-07 4.11945e-08 0)
(-1.74617e-07 -1.10876e-07 0)
(6.27901e-08 -2.82867e-07 0)
(4.3338e-07 -4.65194e-07 0)
(9.42783e-07 -6.51265e-07 0)
(1.59354e-06 -8.36998e-07 0)
(2.38548e-06 -1.01964e-06 0)
(3.31577e-06 -1.19687e-06 0)
(4.37981e-06 -1.36686e-06 0)
(5.57239e-06 -1.52858e-06 0)
(6.888e-06 -1.68174e-06 0)
(8.32053e-06 -1.82616e-06 0)
(9.86311e-06 -1.96151e-06 0)
(1.15085e-05 -2.08743e-06 0)
(1.32495e-05 -2.20381e-06 0)
(1.50792e-05 -2.31088e-06 0)
(1.69909e-05 -2.40903e-06 0)
(1.89776e-05 -2.49852e-06 0)
(2.10324e-05 -2.57944e-06 0)
(2.31485e-05 -2.65188e-06 0)
(2.53195e-05 -2.71606e-06 0)
(2.75392e-05 -2.77233e-06 0)
(2.98014e-05 -2.82106e-06 0)
(3.21003e-05 -2.86253e-06 0)
(3.443e-05 -2.89693e-06 0)
(3.67849e-05 -2.9245e-06 0)
(3.91597e-05 -2.94555e-06 0)
(4.15495e-05 -2.96039e-06 0)
(4.39493e-05 -2.96929e-06 0)
(4.63545e-05 -2.97246e-06 0)
(4.87604e-05 -2.97012e-06 0)
(5.11627e-05 -2.96252e-06 0)
(5.35574e-05 -2.94991e-06 0)
(5.59404e-05 -2.93257e-06 0)
(5.83081e-05 -2.91076e-06 0)
(6.06568e-05 -2.88467e-06 0)
(6.29831e-05 -2.8545e-06 0)
(6.52837e-05 -2.82041e-06 0)
(6.75556e-05 -2.78259e-06 0)
(6.97958e-05 -2.74126e-06 0)
(7.20016e-05 -2.69663e-06 0)
(7.41703e-05 -2.64888e-06 0)
(7.62995e-05 -2.59822e-06 0)
(7.83867e-05 -2.54477e-06 0)
(8.04298e-05 -2.48867e-06 0)
(8.24267e-05 -2.43004e-06 0)
(8.43752e-05 -2.36904e-06 0)
(8.62737e-05 -2.30584e-06 0)
(8.81203e-05 -2.24059e-06 0)
(8.99133e-05 -2.17344e-06 0)
(9.16513e-05 -2.10448e-06 0)
(9.33327e-05 -2.0338e-06 0)
(9.49562e-05 -1.96153e-06 0)
(9.65205e-05 -1.88775e-06 0)
(9.80245e-05 -1.81256e-06 0)
(9.9467e-05 -1.73609e-06 0)
(0.000100847 -1.65843e-06 0)
(0.000102164 -1.57967e-06 0)
(0.000103416 -1.49988e-06 0)
(0.000104603 -1.41913e-06 0)
(0.000105724 -1.33751e-06 0)
(0.000106778 -1.25507e-06 0)
(0.000107765 -1.17189e-06 0)
(0.000108685 -1.08802e-06 0)
(0.000109535 -1.00354e-06 0)
(0.000110317 -9.18508e-07 0)
(0.00011103 -8.32973e-07 0)
(0.000111673 -7.46987e-07 0)
(0.000112245 -6.60605e-07 0)
(0.000112748 -5.73877e-07 0)
(0.000113179 -4.86842e-07 0)
(0.00011354 -3.99538e-07 0)
(0.000113829 -3.12016e-07 0)
(0.000114048 -2.24329e-07 0)
(0.000114195 -1.36526e-07 0)
(0.00011427 -4.86392e-08 0)
(0.000114274 3.92962e-08 0)
(0.000114206 1.27239e-07 0)
(0.000114067 2.15145e-07 0)
(0.000113856 3.02978e-07 0)
(0.000113574 3.90693e-07 0)
(0.00011322 4.78234e-07 0)
(0.000112795 5.65539e-07 0)
(0.0001123 6.52561e-07 0)
(0.000111734 7.39271e-07 0)
(0.000111097 8.25634e-07 0)
(0.00011039 9.11592e-07 0)
(0.000109614 9.97073e-07 0)
(0.000108768 1.08201e-06 0)
(0.000107854 1.16635e-06 0)
(0.000106871 1.25005e-06 0)
(0.00010582 1.33304e-06 0)
(0.000104703 1.41525e-06 0)
(0.000103519 1.49658e-06 0)
(0.000102269 1.57696e-06 0)
(0.000100954 1.65632e-06 0)
(9.9576e-05 1.73459e-06 0)
(9.81345e-05 1.81168e-06 0)
(9.66311e-05 1.88746e-06 0)
(9.50668e-05 1.96186e-06 0)
(9.34427e-05 2.03478e-06 0)
(9.17603e-05 2.10611e-06 0)
(9.00209e-05 2.1757e-06 0)
(8.8226e-05 2.24343e-06 0)
(8.6377e-05 2.30922e-06 0)
(8.44757e-05 2.37297e-06 0)
(8.25238e-05 2.4345e-06 0)
(8.05234e-05 2.49359e-06 0)
(7.84763e-05 2.55014e-06 0)
(7.63846e-05 2.60405e-06 0)
(7.42506e-05 2.65517e-06 0)
(7.20768e-05 2.70325e-06 0)
(6.98657e-05 2.7481e-06 0)
(6.76199e-05 2.78961e-06 0)
(6.53422e-05 2.82765e-06 0)
(6.30357e-05 2.86198e-06 0)
(6.07034e-05 2.89232e-06 0)
(5.83487e-05 2.91848e-06 0)
(5.5975e-05 2.9403e-06 0)
(5.35859e-05 2.95758e-06 0)
(5.11851e-05 2.97007e-06 0)
(4.87768e-05 2.97751e-06 0)
(4.6365e-05 2.97968e-06 0)
(4.39541e-05 2.97631e-06 0)
(4.15487e-05 2.96716e-06 0)
(3.91535e-05 2.95198e-06 0)
(3.67735e-05 2.93053e-06 0)
(3.44137e-05 2.90255e-06 0)
(3.20796e-05 2.86771e-06 0)
(2.97768e-05 2.82576e-06 0)
(2.75109e-05 2.77647e-06 0)
(2.52879e-05 2.71959e-06 0)
(2.31139e-05 2.65479e-06 0)
(2.09955e-05 2.58177e-06 0)
(1.89389e-05 2.50032e-06 0)
(1.69509e-05 2.41027e-06 0)
(1.50382e-05 2.31139e-06 0)
(1.32079e-05 2.20343e-06 0)
(1.1467e-05 2.08624e-06 0)
(9.82251e-06 1.95981e-06 0)
(8.28134e-06 1.82411e-06 0)
(6.85054e-06 1.67919e-06 0)
(5.53688e-06 1.52523e-06 0)
(4.34664e-06 1.3627e-06 0)
(3.28559e-06 1.19231e-06 0)
(2.35888e-06 1.015e-06 0)
(1.57063e-06 8.32163e-07 0)
(9.23377e-07 6.45981e-07 0)
(4.17342e-07 4.59773e-07 0)
(5.00005e-08 2.78113e-07 0)
(-1.84451e-07 1.07044e-07 0)
(-2.96319e-07 -4.49172e-08 0)
(-3.02657e-07 -1.64894e-07 0)
(-2.30327e-07 -2.33707e-07 0)
(-1.21629e-07 -2.26193e-07 0)
(-3.22062e-08 -1.16184e-07 0)
(-2.82608e-08 1.82384e-07 0)
(-9.87673e-08 3.23941e-07 0)
(-1.61626e-07 2.99511e-07 0)
(-1.56152e-07 1.55199e-07 0)
(-4.06932e-08 -7.2701e-08 0)
(2.13001e-07 -3.56752e-07 0)
(6.2551e-07 -6.76558e-07 0)
(1.20995e-06 -1.01678e-06 0)
(1.97337e-06 -1.36581e-06 0)
(2.91889e-06 -1.7154e-06 0)
(4.04681e-06 -2.06011e-06 0)
(5.3547e-06 -2.39605e-06 0)
(6.83763e-06 -2.72005e-06 0)
(8.48914e-06 -3.02966e-06 0)
(1.03021e-05 -3.32337e-06 0)
(1.22689e-05 -3.60054e-06 0)
(1.43813e-05 -3.86084e-06 0)
(1.66305e-05 -4.10391e-06 0)
(1.90072e-05 -4.32946e-06 0)
(2.15021e-05 -4.53744e-06 0)
(2.41064e-05 -4.72814e-06 0)
(2.6811e-05 -4.90204e-06 0)
(2.96072e-05 -5.05955e-06 0)
(3.24861e-05 -5.20101e-06 0)
(3.5439e-05 -5.32672e-06 0)
(3.84576e-05 -5.43713e-06 0)
(4.15338e-05 -5.53282e-06 0)
(4.46597e-05 -5.61437e-06 0)
(4.78276e-05 -5.68226e-06 0)
(5.103e-05 -5.73694e-06 0)
(5.42597e-05 -5.77891e-06 0)
(5.75101e-05 -5.80868e-06 0)
(6.07744e-05 -5.82677e-06 0)
(6.40463e-05 -5.83368e-06 0)
(6.73198e-05 -5.8299e-06 0)
(7.05888e-05 -5.81587e-06 0)
(7.38479e-05 -5.79202e-06 0)
(7.70917e-05 -5.75882e-06 0)
(8.03149e-05 -5.71671e-06 0)
(8.35128e-05 -5.66616e-06 0)
(8.66807e-05 -5.60759e-06 0)
(8.98142e-05 -5.54138e-06 0)
(9.29091e-05 -5.46787e-06 0)
(9.59612e-05 -5.38744e-06 0)
(9.89669e-05 -5.30043e-06 0)
(0.000101922 -5.20722e-06 0)
(0.000104824 -5.10816e-06 0)
(0.00010767 -5.00359e-06 0)
(0.000110455 -4.89381e-06 0)
(0.000113178 -4.7791e-06 0)
(0.000115836 -4.65971e-06 0)
(0.000118425 -4.53591e-06 0)
(0.000120944 -4.40801e-06 0)
(0.00012339 -4.27627e-06 0)
(0.000125761 -4.14094e-06 0)
(0.000128056 -4.00221e-06 0)
(0.000130271 -3.86031e-06 0)
(0.000132407 -3.71543e-06 0)
(0.000134459 -3.56778e-06 0)
(0.000136429 -3.41755e-06 0)
(0.000138313 -3.26492e-06 0)
(0.00014011 -3.11008e-06 0)
(0.00014182 -2.95317e-06 0)
(0.000143441 -2.79436e-06 0)
(0.000144972 -2.63379e-06 0)
(0.000146412 -2.4716e-06 0)
(0.000147761 -2.30792e-06 0)
(0.000149017 -2.14288e-06 0)
(0.000150179 -1.97659e-06 0)
(0.000151247 -1.80918e-06 0)
(0.000152221 -1.64077e-06 0)
(0.000153099 -1.47146e-06 0)
(0.000153882 -1.30135e-06 0)
(0.000154568 -1.13053e-06 0)
(0.000155158 -9.59094e-07 0)
(0.000155651 -7.87135e-07 0)
(0.000156046 -6.14742e-07 0)
(0.000156345 -4.4201e-07 0)
(0.000156546 -2.6903e-07 0)
(0.000156649 -9.58829e-08 0)
(0.000156654 7.73554e-08 0)
(0.000156562 2.50602e-07 0)
(0.000156371 4.23766e-07 0)
(0.000156083 5.9676e-07 0)
(0.000155698 7.69503e-07 0)
(0.000155215 9.41909e-07 0)
(0.000154635 1.11388e-06 0)
(0.000153958 1.28529e-06 0)
(0.000153184 1.45606e-06 0)
(0.000152315 1.6261e-06 0)
(0.000151349 1.79531e-06 0)
(0.000150289 1.96359e-06 0)
(0.000149134 2.1308e-06 0)
(0.000147885 2.29682e-06 0)
(0.000146543 2.46152e-06 0)
(0.000145108 2.62477e-06 0)
(0.000143582 2.78646e-06 0)
(0.000141965 2.94643e-06 0)
(0.000140259 3.10452e-06 0)
(0.000138464 3.26055e-06 0)
(0.000136583 3.41437e-06 0)
(0.000134615 3.56583e-06 0)
(0.000132563 3.71472e-06 0)
(0.000130428 3.86081e-06 0)
(0.000128212 4.00394e-06 0)
(0.000125916 4.14391e-06 0)
(0.000123543 4.28047e-06 0)
(0.000121095 4.41335e-06 0)
(0.000118573 4.5423e-06 0)
(0.00011598 4.66713e-06 0)
(0.000113318 4.78758e-06 0)
(0.00011059 4.90332e-06 0)
(0.000107799 5.014e-06 0)
(0.000104948 5.11937e-06 0)
(0.00010204 5.21918e-06 0)
(9.90774e-05 5.31309e-06 0)
(9.60646e-05 5.40068e-06 0)
(9.3005e-05 5.48158e-06 0)
(8.99025e-05 5.55553e-06 0)
(8.67611e-05 5.62216e-06 0)
(8.3585e-05 5.68106e-06 0)
(8.03789e-05 5.73177e-06 0)
(7.71473e-05 5.77387e-06 0)
(7.38953e-05 5.80698e-06 0)
(7.0628e-05 5.83068e-06 0)
(6.73507e-05 5.84449e-06 0)
(6.40692e-05 5.84796e-06 0)
(6.07894e-05 5.84063e-06 0)
(5.75173e-05 5.822e-06 0)
(5.42595e-05 5.79158e-06 0)
(5.10227e-05 5.74888e-06 0)
(4.78136e-05 5.69345e-06 0)
(4.46395e-05 5.62475e-06 0)
(4.1508e-05 5.54224e-06 0)
(3.84266e-05 5.44542e-06 0)
(3.54034e-05 5.33386e-06 0)
(3.24463e-05 5.2071e-06 0)
(2.9564e-05 5.06461e-06 0)
(2.67651e-05 4.90591e-06 0)
(2.40582e-05 4.73064e-06 0)
(2.14523e-05 4.53851e-06 0)
(1.89565e-05 4.32922e-06 0)
(1.65799e-05 4.10252e-06 0)
(1.43315e-05 3.85836e-06 0)
(1.22203e-05 3.59689e-06 0)
(1.02551e-05 3.31842e-06 0)
(8.4444e-06 3.02344e-06 0)
(6.796e-06 2.71291e-06 0)
(5.3169e-06 2.38834e-06 0)
(4.01306e-06 2.05191e-06 0)
(2.88912e-06 1.7065e-06 0)
(1.94786e-06 1.35621e-06 0)
(1.18923e-06 1.007e-06 0)
(6.09471e-07 6.67354e-07 0)
(2.00478e-07 3.4876e-07 0)
(-5.05987e-08 6.61258e-08 0)
(-1.62591e-07 -1.60692e-07 0)
(-1.63558e-07 -3.04237e-07 0)
(-9.85364e-08 -3.27319e-07 0)
(-2.82454e-08 -1.83152e-07 0)
(-2.02835e-08 2.29055e-07 0)
(-5.43681e-08 3.7376e-07 0)
(-4.30728e-08 2.89815e-07 0)
(7.02752e-08 3.98751e-08 0)
(3.26005e-07 -3.28539e-07 0)
(7.52388e-07 -7.77961e-07 0)
(1.37049e-06 -1.28015e-06 0)
(2.19477e-06 -1.81388e-06 0)
(3.23346e-06 -2.36271e-06 0)
(4.4899e-06 -2.91405e-06 0)
(5.96421e-06 -3.45887e-06 0)
(7.65399e-06 -3.9909e-06 0)
(9.55441e-06 -4.50551e-06 0)
(1.16585e-05 -4.99898e-06 0)
(1.3958e-05 -5.46854e-06 0)
(1.64438e-05 -5.91243e-06 0)
(1.91063e-05 -6.32977e-06 0)
(2.19354e-05 -6.72011e-06 0)
(2.49204e-05 -7.08318e-06 0)
(2.80504e-05 -7.41883e-06 0)
(3.13143e-05 -7.72717e-06 0)
(3.47015e-05 -8.0086e-06 0)
(3.82013e-05 -8.2637e-06 0)
(4.18032e-05 -8.4931e-06 0)
(4.54967e-05 -8.69741e-06 0)
(4.92715e-05 -8.87724e-06 0)
(5.31177e-05 -9.03332e-06 0)
(5.70255e-05 -9.16648e-06 0)
(6.09856e-05 -9.27755e-06 0)
(6.49889e-05 -9.36731e-06 0)
(6.90266e-05 -9.43652e-06 0)
(7.30901e-05 -9.48592e-06 0)
(7.71712e-05 -9.5163e-06 0)
(8.12622e-05 -9.52845e-06 0)
(8.53555e-05 -9.52318e-06 0)
(8.94436e-05 -9.50124e-06 0)
(9.35198e-05 -9.46334e-06 0)
(9.75772e-05 -9.41019e-06 0)
(0.000101609 -9.34248e-06 0)
(0.00010561 -9.26089e-06 0)
(0.000109574 -9.16611e-06 0)
(0.000113496 -9.05881e-06 0)
(0.000117369 -8.93958e-06 0)
(0.00012119 -8.80903e-06 0)
(0.000124953 -8.66773e-06 0)
(0.000128653 -8.51625e-06 0)
(0.000132287 -8.3551e-06 0)
(0.000135851 -8.18484e-06 0)
(0.00013934 -8.00599e-06 0)
(0.000142751 -7.81902e-06 0)
(0.00014608 -7.6244e-06 0)
(0.000149324 -7.42255e-06 0)
(0.000152481 -7.21391e-06 0)
(0.000155546 -6.99891e-06 0)
(0.000158518 -6.77794e-06 0)
(0.000161394 -6.55136e-06 0)
(0.000164172 -6.31953e-06 0)
(0.000166849 -6.08279e-06 0)
(0.000169423 -5.84148e-06 0)
(0.000171892 -5.5959e-06 0)
(0.000174255 -5.34634e-06 0)
(0.000176509 -5.09309e-06 0)
(0.000178654 -4.83643e-06 0)
(0.000180687 -4.5766e-06 0)
(0.000182608 -4.31384e-06 0)
(0.000184414 -4.04839e-06 0)
(0.000186106 -3.78047e-06 0)
(0.000187682 -3.51028e-06 0)
(0.00018914 -3.23802e-06 0)
(0.00019048 -2.96391e-06 0)
(0.000191702 -2.68811e-06 0)
(0.000192804 -2.41082e-06 0)
(0.000193786 -2.13218e-06 0)
(0.000194648 -1.85237e-06 0)
(0.000195388 -1.57152e-06 0)
(0.000196007 -1.28982e-06 0)
(0.000196504 -1.00739e-06 0)
(0.000196878 -7.24395e-07 0)
(0.000197131 -4.40975e-07 0)
(0.00019726 -1.57277e-07 0)
(0.000197267 1.26564e-07 0)
(0.000197151 4.10412e-07 0)
(0.000196912 6.94128e-07 0)
(0.000196551 9.77557e-07 0)
(0.000196068 1.26055e-06 0)
(0.000195462 1.54296e-06 0)
(0.000194734 1.82465e-06 0)
(0.000193885 2.10545e-06 0)
(0.000192914 2.38518e-06 0)
(0.000191823 2.66368e-06 0)
(0.000190612 2.94078e-06 0)
(0.000189282 3.21631e-06 0)
(0.000187833 3.49008e-06 0)
(0.000186266 3.76188e-06 0)
(0.000184582 4.03149e-06 0)
(0.000182783 4.29868e-06 0)
(0.000180869 4.56326e-06 0)
(0.000178841 4.82498e-06 0)
(0.000176702 5.08358e-06 0)
(0.000174451 5.33879e-06 0)
(0.000172092 5.59033e-06 0)
(0.000169625 5.83793e-06 0)
(0.000167052 6.08127e-06 0)
(0.000164376 6.32003e-06 0)
(0.000161598 6.55384e-06 0)
(0.000158721 6.78238e-06 0)
(0.000155747 7.00532e-06 0)
(0.000152679 7.22224e-06 0)
(0.000149519 7.43268e-06 0)
(0.00014627 7.63625e-06 0)
(0.000142935 7.83257e-06 0)
(0.000139519 8.02117e-06 0)
(0.000136023 8.20152e-06 0)
(0.000132453 8.3731e-06 0)
(0.000128811 8.53545e-06 0)
(0.000125102 8.68811e-06 0)
(0.00012133 8.83047e-06 0)
(0.0001175 8.96192e-06 0)
(0.000113617 9.08186e-06 0)
(0.000109686 9.18975e-06 0)
(0.000105712 9.28498e-06 0)
(0.000101701 9.36687e-06 0)
(9.76579e-05 9.4347e-06 0)
(9.35901e-05 9.48782e-06 0)
(8.95036e-05 9.52554e-06 0)
(8.54051e-05 9.54713e-06 0)
(8.13017e-05 9.55186e-06 0)
(7.72007e-05 9.53899e-06 0)
(7.31097e-05 9.50778e-06 0)
(6.90368e-05 9.45741e-06 0)
(6.49902e-05 9.3871e-06 0)
(6.09784e-05 9.29611e-06 0)
(5.70103e-05 9.18368e-06 0)
(5.3095e-05 9.04899e-06 0)
(4.92421e-05 8.89121e-06 0)
(4.54613e-05 8.70962e-06 0)
(4.17625e-05 8.50356e-06 0)
(3.8156e-05 8.27234e-06 0)
(3.46522e-05 8.01526e-06 0)
(3.12619e-05 7.73172e-06 0)
(2.79956e-05 7.42132e-06 0)
(2.48644e-05 7.08375e-06 0)
(2.18789e-05 6.71878e-06 0)
(1.90502e-05 6.32639e-06 0)
(1.63886e-05 5.90693e-06 0)
(1.39045e-05 5.46111e-06 0)
(1.16075e-05 4.99001e-06 0)
(9.50683e-06 4.49528e-06 0)
(7.6104e-06 3.97943e-06 0)
(5.92478e-06 3.44613e-06 0)
(4.45479e-06 2.90033e-06 0)
(3.20323e-06 2.34858e-06 0)
(2.17004e-06 1.79974e-06 0)
(1.35123e-06 1.26611e-06 0)
(7.37721e-07 7.64506e-07 0)
(3.1491e-07 3.17014e-07 0)
(6.26852e-08 -4.84304e-08 0)
(-4.65305e-08 -2.96008e-07 0)
(-5.50732e-08 -3.78359e-07 0)
(-2.03824e-08 -2.30909e-07 0)
(-1.01389e-08 2.48497e-07 0)
(2.94673e-09 3.54674e-07 0)
(1.08411e-07 1.75172e-07 0)
(3.53268e-07 -2.13811e-07 0)
(7.74355e-07 -7.54953e-07 0)
(1.39865e-06 -1.40213e-06 0)
(2.246e-06 -2.11928e-06 0)
(3.33061e-06 -2.87899e-06 0)
(4.66118e-06 -3.66024e-06 0)
(6.24133e-06 -4.44648e-06 0)
(8.07076e-06 -5.22498e-06 0)
(1.01466e-05 -5.9864e-06 0)
(1.24636e-05 -6.72402e-06 0)
(1.50149e-05 -7.43285e-06 0)
(1.77914e-05 -8.10901e-06 0)
(2.07829e-05 -8.74964e-06 0)
(2.39785e-05 -9.3529e-06 0)
(2.73668e-05 -9.91783e-06 0)
(3.0936e-05 -1.0444e-05 0)
(3.46739e-05 -1.09313e-05 0)
(3.8568e-05 -1.13797e-05 0)
(4.26059e-05 -1.17896e-05 0)
(4.67753e-05 -1.21616e-05 0)
(5.1064e-05 -1.24964e-05 0)
(5.54603e-05 -1.27949e-05 0)
(5.9952e-05 -1.30581e-05 0)
(6.45277e-05 -1.32869e-05 0)
(6.91759e-05 -1.34824e-05 0)
(7.38858e-05 -1.36457e-05 0)
(7.86467e-05 -1.3778e-05 0)
(8.34483e-05 -1.38802e-05 0)
(8.82806e-05 -1.39536e-05 0)
(9.31341e-05 -1.39992e-05 0)
(9.79994e-05 -1.4018e-05 0)
(0.000102868 -1.40113e-05 0)
(0.00010773 -1.39801e-05 0)
(0.000112578 -1.39255e-05 0)
(0.000117405 -1.38485e-05 0)
(0.000122202 -1.37502e-05 0)
(0.000126962 -1.36314e-05 0)
(0.000131679 -1.34931e-05 0)
(0.000136346 -1.33364e-05 0)
(0.000140956 -1.3162e-05 0)
(0.000145503 -1.2971e-05 0)
(0.000149982 -1.2764e-05 0)
(0.000154388 -1.25421e-05 0)
(0.000158715 -1.23059e-05 0)
(0.000162958 -1.20562e-05 0)
(0.000167113 -1.17937e-05 0)
(0.000171175 -1.15192e-05 0)
(0.00017514 -1.12334e-05 0)
(0.000179005 -1.09369e-05 0)
(0.000182765 -1.06303e-05 0)
(0.000186418 -1.03142e-05 0)
(0.000189959 -9.9893e-06 0)
(0.000193386 -9.65604e-06 0)
(0.000196697 -9.31496e-06 0)
(0.000199887 -8.96658e-06 0)
(0.000202955 -8.6114e-06 0)
(0.000205899 -8.24986e-06 0)
(0.000208715 -7.8824e-06 0)
(0.000211403 -7.50944e-06 0)
(0.00021396 -7.13138e-06 0)
(0.000216384 -6.7486e-06 0)
(0.000218675 -6.36145e-06 0)
(0.000220829 -5.97026e-06 0)
(0.000222847 -5.57538e-06 0)
(0.000224726 -5.17713e-06 0)
(0.000226465 -4.7758e-06 0)
(0.000228064 -4.37167e-06 0)
(0.000229521 -3.96503e-06 0)
(0.000230836 -3.55614e-06 0)
(0.000232008 -3.14524e-06 0)
(0.000233035 -2.73257e-06 0)
(0.000233919 -2.31837e-06 0)
(0.000234657 -1.90287e-06 0)
(0.00023525 -1.4863e-06 0)
(0.000235697 -1.06888e-06 0)
(0.000235998 -6.50811e-07 0)
(0.000236153 -2.32325e-07 0)
(0.000236161 1.86367e-07 0)
(0.000236023 6.05062e-07 0)
(0.000235739 1.02356e-06 0)
(0.000235308 1.44163e-06 0)
(0.000234731 1.85905e-06 0)
(0.000234009 2.27558e-06 0)
(0.000233141 2.69101e-06 0)
(0.000232128 3.1051e-06 0)
(0.000230971 3.51763e-06 0)
(0.00022967 3.92831e-06 0)
(0.000228226 4.33689e-06 0)
(0.000226639 4.74311e-06 0)
(0.000224912 5.14668e-06 0)
(0.000223043 5.54731e-06 0)
(0.000221036 5.94468e-06 0)
(0.000218891 6.33846e-06 0)
(0.000216609 6.7283e-06 0)
(0.000214191 7.11387e-06 0)
(0.000211641 7.49479e-06 0)
(0.000208958 7.87067e-06 0)
(0.000206146 8.24107e-06 0)
(0.000203205 8.60557e-06 0)
(0.000200139 8.96375e-06 0)
(0.00019695 9.31511e-06 0)
(0.00019364 9.65914e-06 0)
(0.000190212 9.9953e-06 0)
(0.000186668 1.03231e-05 0)
(0.000183013 1.0642e-05 0)
(0.000179248 1.09513e-05 0)
(0.000175379 1.12504e-05 0)
(0.000171407 1.15387e-05 0)
(0.000167338 1.18156e-05 0)
(0.000163176 1.20803e-05 0)
(0.000158924 1.2332e-05 0)
(0.000154588 1.25701e-05 0)
(0.000150173 1.27938e-05 0)
(0.000145683 1.30022e-05 0)
(0.000141125 1.31947e-05 0)
(0.000136504 1.33701e-05 0)
(0.000131825 1.35277e-05 0)
(0.000127097 1.36667e-05 0)
(0.000122324 1.3786e-05 0)
(0.000117515 1.38846e-05 0)
(0.000112676 1.39616e-05 0)
(0.000107815 1.4016e-05 0)
(0.00010294 1.40467e-05 0)
(9.80594e-05 1.40526e-05 0)
(9.31822e-05 1.40328e-05 0)
(8.8317e-05 1.3986e-05 0)
(8.34732e-05 1.39113e-05 0)
(7.86607e-05 1.38075e-05 0)
(7.38894e-05 1.36735e-05 0)
(6.91698e-05 1.35081e-05 0)
(6.45124e-05 1.33105e-05 0)
(5.99284e-05 1.30793e-05 0)
(5.54292e-05 1.28136e-05 0)
(5.10263e-05 1.25124e-05 0)
(4.67316e-05 1.21749e-05 0)
(4.2557e-05 1.18001e-05 0)
(3.8515e-05 1.13874e-05 0)
(3.46178e-05 1.09361e-05 0)
(3.08779e-05 1.04459e-05 0)
(2.73074e-05 9.91677e-06 0)
(2.39188e-05 9.34884e-06 0)
(2.07238e-05 8.74269e-06 0)
(1.7734e-05 8.09954e-06 0)
(1.49601e-05 7.42122e-06 0)
(1.2412e-05 6.71035e-06 0)
(1.00987e-05 5.97064e-06 0)
(8.02722e-06 5.20735e-06 0)
(6.20275e-06 4.42769e-06 0)
(4.62798e-06 3.64114e-06 0)
(3.30282e-06 2.85999e-06 0)
(2.2236e-06 2.10032e-06 0)
(1.38172e-06 1.38365e-06 0)
(7.62569e-07 7.38408e-07 0)
(3.45566e-07 2.00713e-07 0)
(1.04035e-07 -1.8474e-07 0)
(1.12882e-09 -3.61312e-07 0)
(-1.05643e-08 -2.511e-07 0)
(7.99654e-10 2.36146e-07 0)
(6.72169e-08 2.5479e-07 0)
(2.80064e-07 -6.16477e-08 0)
(6.72807e-07 -6.26065e-07 0)
(1.27667e-06 -1.37313e-06 0)
(2.11672e-06 -2.24968e-06 0)
(3.21081e-06 -3.21278e-06 0)
(4.57141e-06 -4.22893e-06 0)
(6.20656e-06 -5.2723e-06 0)
(8.11981e-06 -6.32274e-06 0)
(1.03106e-05 -7.36424e-06 0)
(1.27754e-05 -8.38437e-06 0)
(1.55084e-05 -9.37386e-06 0)
(1.8502e-05 -1.03259e-05 0)
(2.17468e-05 -1.12356e-05 0)
(2.52318e-05 -1.20991e-05 0)
(2.89453e-05 -1.29136e-05 0)
(3.28745e-05 -1.36774e-05 0)
(3.70065e-05 -1.43896e-05 0)
(4.13281e-05 -1.505e-05 0)
(4.58255e-05 -1.56585e-05 0)
(5.0485e-05 -1.62155e-05 0)
(5.5293e-05 -1.67215e-05 0)
(6.02358e-05 -1.71775e-05 0)
(6.53001e-05 -1.75844e-05 0)
(7.04727e-05 -1.79436e-05 0)
(7.57404e-05 -1.82564e-05 0)
(8.10905e-05 -1.85239e-05 0)
(8.65108e-05 -1.87477e-05 0)
(9.1989e-05 -1.89291e-05 0)
(9.75137e-05 -1.90697e-05 0)
(0.000103073 -1.91709e-05 0)
(0.000108657 -1.92342e-05 0)
(0.000114255 -1.92611e-05 0)
(0.000119856 -1.9253e-05 0)
(0.00012545 -1.92113e-05 0)
(0.000131029 -1.91375e-05 0)
(0.000136582 -1.9033e-05 0)
(0.000142102 -1.88991e-05 0)
(0.00014758 -1.87373e-05 0)
(0.000153009 -1.85487e-05 0)
(0.000158379 -1.83346e-05 0)
(0.000163686 -1.80963e-05 0)
(0.00016892 -1.7835e-05 0)
(0.000174077 -1.75519e-05 0)
(0.000179149 -1.7248e-05 0)
(0.000184131 -1.69244e-05 0)
(0.000189017 -1.65823e-05 0)
(0.000193802 -1.62225e-05 0)
(0.00019848 -1.58461e-05 0)
(0.000203048 -1.5454e-05 0)
(0.000207499 -1.50471e-05 0)
(0.000211831 -1.46262e-05 0)
(0.000216039 -1.41923e-05 0)
(0.000220119 -1.37461e-05 0)
(0.000224068 -1.32883e-05 0)
(0.000227882 -1.28197e-05 0)
(0.000231559 -1.2341e-05 0)
(0.000235095 -1.18528e-05 0)
(0.000238488 -1.13558e-05 0)
(0.000241734 -1.08506e-05 0)
(0.000244832 -1.03377e-05 0)
(0.00024778 -9.81769e-06 0)
(0.000250575 -9.29114e-06 0)
(0.000253215 -8.75851e-06 0)
(0.0002557 -8.22027e-06 0)
(0.000258026 -7.67688e-06 0)
(0.000260192 -7.12879e-06 0)
(0.000262198 -6.57642e-06 0)
(0.000264042 -6.02015e-06 0)
(0.000265723 -5.46036e-06 0)
(0.000267239 -4.89743e-06 0)