/*--------------------------------*- C++ -*----------------------------------*\
  =========                 |
  \\      /  F ield         | OpenFOAM: The Open Source CFD Toolbox
   \\    /   O peration     | Website:  https://openfoam.org
    \\  /    A nd           | Version:  7
     \\/     M anipulation  |
\*---------------------------------------------------------------------------*/
FoamFile
{
    version     2.0;
    format      ascii;
    class       volScalarField;
    location    "0.425";
    object      p;
}
// * * * * * * * * * * * * * * * * * * * * * * * * * * * * * * * * * * * * * //

dimensions      [0 2 -2 0 0 0 0];

internalField   nonuniform List<scalar> 
12800
(
2.79392e-06
0.000186884
-0.000898225
-0.00334309
-0.00690168
-0.0113271
-0.0163862
-0.0218656
-0.0275786
-0.033365
-0.0390887
-0.0446343
-0.0499045
-0.0548177
-0.059306
-0.0633132
-0.0667936
-0.0697106
-0.0720353
-0.0737459
-0.0748266
-0.075267
-0.0750613
-0.0742078
-0.0727086
-0.0705684
-0.0677951
-0.0643985
-0.0603905
-0.0557848
-0.0505963
-0.0448409
-0.0385356
-0.031698
-0.0243463
-0.0164991
-0.00817487
0.000607494
0.00982936
0.0194721
0.0295175
0.0399473
0.0507438
0.0618898
0.0733684
0.0851635
0.0972593
0.109641
0.122293
0.135202
0.148355
0.161739
0.175342
0.189152
0.203158
0.21735
0.231719
0.246255
0.26095
0.275796
0.290785
0.30591
0.321165
0.336544
0.352041
0.367651
0.38337
0.399192
0.415115
0.431133
0.447244
0.463445
0.479733
0.496105
0.512558
0.529089
0.545698
0.562381
0.579136
0.595961
0.612855
0.629814
0.646836
0.66392
0.681062
0.69826
0.715511
0.732812
0.750158
0.767547
0.784974
0.802435
0.819924
0.837435
0.854963
0.872501
0.890041
0.907576
0.925097
0.942593
0.960056
0.977474
0.994835
1.01213
1.02933
1.04644
1.06344
1.08031
1.09703
1.11358
1.12995
1.14611
1.16204
1.17772
1.19313
1.20825
1.22303
1.23747
1.25154
1.2652
1.27843
1.2912
1.30349
1.31526
1.32648
1.33713
1.34718
1.35661
1.36537
1.37346
1.38084
1.38749
1.3934
1.39854
1.40289
1.40645
1.4092
1.41114
1.41227
1.41258
1.4121
1.41082
1.40879
1.40601
1.40253
1.3984
1.39366
1.3884
1.38268
1.37661
1.3703
1.36389
1.35752
1.35138
1.34569
1.34068
1.33663
1.33382
1.33254
1.33271
-0.000177301
6.16182e-06
-0.00099706
-0.00313023
-0.00616891
-0.00993735
-0.0142618
-0.018972
-0.0239113
-0.0289407
-0.033938
-0.038797
-0.0434265
-0.0477487
-0.0516975
-0.0552176
-0.058263
-0.0607963
-0.0627873
-0.0642125
-0.0650542
-0.0652998
-0.0649414
-0.0639748
-0.0623995
-0.0602182
-0.0574361
-0.0540607
-0.0501017
-0.0455703
-0.0404791
-0.034842
-0.028674
-0.0219906
-0.0148081
-0.00714329
0.000986939
0.00956546
0.0185751
0.0279987
0.0378193
0.0480198
0.0585837
0.0694949
0.0807374
0.0922959
0.104156
0.116302
0.128721
0.141399
0.154324
0.167482
0.180863
0.194455
0.208248
0.222231
0.236394
0.25073
0.265229
0.279883
0.294685
0.309627
0.324704
0.339909
0.355236
0.37068
0.386236
0.4019
0.417666
0.433532
0.449493
0.465546
0.481687
0.497914
0.514224
0.530613
0.547079
0.56362
0.580233
0.596915
0.613664
0.630477
0.647352
0.664286
0.681275
0.698317
0.715408
0.732545
0.749723
0.766939
0.784188
0.801465
0.818764
0.83608
0.853405
0.870734
0.888058
0.905369
0.922658
0.939916
0.957133
0.974296
0.991395
1.00842
1.02535
1.04217
1.05888
1.07544
1.09186
1.1081
1.12415
1.13998
1.15559
1.17094
1.18602
1.2008
1.21525
1.22936
1.24309
1.25642
1.26933
1.28179
1.29377
1.30524
1.31619
1.32657
1.33637
1.34557
1.35413
1.36203
1.36926
1.37579
1.3816
1.38668
1.39102
1.3946
1.39742
1.39947
1.40076
1.40129
1.40107
1.40012
1.39847
1.39613
1.39315
1.38958
1.38546
1.38088
1.3759
1.37062
1.36514
1.35959
1.35411
1.34885
1.344
1.33976
1.33632
1.33388
1.33271
1.33287
0.000906785
0.00100955
5.60207e-06
-0.00197923
-0.00472948
-0.00810274
-0.0119588
-0.0161559
-0.0205611
-0.0250528
-0.0295221
-0.0338726
-0.0380198
-0.0418906
-0.0454221
-0.048561
-0.0512624
-0.0534889
-0.0552103
-0.0564023
-0.0570462
-0.0571283
-0.0566391
-0.0555731
-0.053928
-0.0517047
-0.0489068
-0.0455401
-0.0416123
-0.037133
-0.0321131
-0.0265648
-0.0205015
-0.0139371
-0.00688646
0.000635164
0.0086122
0.0170288
0.0258692
0.0351172
0.0447568
0.0547723
0.0651478
0.0758682
0.0869184
0.0982837
0.10995
0.121903
0.13413
0.146618
0.159353
0.172325
0.185522
0.198933
0.212547
0.226355
0.240347
0.254514
0.268848
0.28334
0.297984
0.312773
0.327698
0.342755
0.357938
0.37324
0.388658
0.404185
0.419818
0.435552
0.451384
0.467309
0.483324
0.499426
0.515612
0.531878
0.548221
0.564639
0.581128
0.597687
0.614311
0.630998
0.647745
0.664549
0.681406
0.698314
0.715267
0.732263
0.749298
0.766366
0.783462
0.800582
0.81772
0.834869
0.852023
0.869174
0.886316
0.903438
0.920533
0.937591
0.954601
0.971553
0.988433
1.00523
1.02193
1.03852
1.05498
1.0713
1.08746
1.10345
1.11924
1.13481
1.15015
1.16523
1.18004
1.19455
1.20873
1.22257
1.23604
1.24911
1.26176
1.27397
1.28571
1.29695
1.30767
1.31785
1.32746
1.33648
1.34488
1.35264
1.35976
1.36619
1.37194
1.37699
1.38132
1.38493
1.38781
1.38997
1.39139
1.3921
1.3921
1.39141
1.39006
1.38807
1.38548
1.38234
1.37871
1.37464
1.37021
1.36551
1.36064
1.3557
1.35083
1.34617
1.34186
1.33807
1.33496
1.3327
1.33153
1.33159
0.00335228
0.00314463
0.00198769
-2.11543e-06
-0.00264549
-0.00581881
-0.00940214
-0.0132749
-0.0173223
-0.0214384
-0.0255266
-0.0294998
-0.0332812
-0.0368029
-0.0400063
-0.0428408
-0.0452635
-0.0472384
-0.0487357
-0.0497313
-0.0502063
-0.0501464
-0.0495414
-0.0483848
-0.0466734
-0.0444069
-0.0415874
-0.0382197
-0.0343101
-0.0298668
-0.0248994
-0.0194188
-0.0134371
-0.00696691
-2.19408e-05
0.00738381
0.0152359
0.0235197
0.0322202
0.0413225
0.0508113
0.0606717
0.0708888
0.0814482
0.0923354
0.103537
0.115038
0.126826
0.138889
0.151212
0.163785
0.176596
0.189633
0.202886
0.216345
0.23
0.243841
0.257861
0.27205
0.2864
0.300904
0.315556
0.330347
0.345273
0.360326
0.375502
0.390795
0.406201
0.421713
0.437329
0.453044
0.468854
0.484755
0.500744
0.516817
0.532971
0.549203
0.565509
0.581886
0.598332
0.614843
0.631415
0.648046
0.664733
0.681471
0.698256
0.715086
0.731955
0.748859
0.765794
0.782754
0.799734
0.816727
0.833728
0.85073
0.867725
0.884705
0.901662
0.918586
0.935469
0.952298
0.969064
0.985755
1.00236
1.01886
1.03524
1.0515
1.06761
1.08355
1.09932
1.11489
1.13024
1.14535
1.16021
1.17479
1.18907
1.20303
1.21664
1.22989
1.24275
1.25519
1.26719
1.27873
1.28979
1.30033
1.31034
1.3198
1.32867
1.33695
1.34461
1.35164
1.35801
1.36372
1.36874
1.37308
1.37672
1.37966
1.38191
1.38345
1.38431
1.3845
1.38403
1.38292
1.38122
1.37894
1.37615
1.37288
1.36921
1.3652
1.36093
1.35649
1.35199
1.34753
1.34323
1.33924
1.33568
1.3327
1.33044
1.32909
1.32879
0.00692219
0.00619421
0.00474055
0.00262882
-2.49832e-05
-0.00311499
-0.00653821
-0.0101929
-0.0139813
-0.0178116
-0.0215991
-0.0252664
-0.0287444
-0.0319713
-0.0348931
-0.0374627
-0.0396398
-0.0413902
-0.0426852
-0.0435015
-0.0438204
-0.0436276
-0.0429125
-0.0416681
-0.0398905
-0.0375784
-0.0347332
-0.0313585
-0.0274595
-0.0230435
-0.0181187
-0.0126951
-0.00678341
-0.000395415
0.00645645
0.0137592
0.0214995
0.0296637
0.0382376
0.0472073
0.0565583
0.0662766
0.0763481
0.0867589
0.0974954
0.108544
0.119892
0.131527
0.143435
0.155605
0.168024
0.180683
0.19357
0.206674
0.219985
0.233495
0.247193
0.261072
0.275122
0.289336
0.303707
0.318227
0.332889
0.347688
0.362616
0.37767
0.392842
0.408129
0.423525
0.439025
0.454626
0.470323
0.486113
0.501991
0.517954
0.533998
0.55012
0.566316
0.582583
0.598918
0.615318
0.631778
0.648295
0.664866
0.681487
0.698154
0.714862
0.731607
0.748385
0.76519
0.782018
0.798862
0.815716
0.832574
0.849429
0.866273
0.883098
0.899896
0.916658
0.933373
0.950031
0.966622
0.983132
0.999551
1.01586
1.03206
1.04812
1.06403
1.07977
1.09534
1.1107
1.12584
1.14075
1.1554
1.16977
1.18385
1.1976
1.21101
1.22406
1.23672
1.24897
1.26079
1.27215
1.28304
1.29342
1.30329
1.31261
1.32136
1.32954
1.33711
1.34406
1.35038
1.35606
1.36107
1.36542
1.3691
1.3721
1.37443
1.37609
1.3771
1.37745
1.37717
1.37629
1.37484
1.37284
1.37034
1.36739
1.36405
1.36039
1.35646
1.35237
1.34819
1.34402
1.33998
1.33617
1.33272
1.32973
1.32733
1.32564
1.32474
0.0113806
0.00999086
0.00812852
0.00579604
0.00303202
-7.43486e-05
-0.00343464
-0.0069644
-0.0105814
-0.014207
-0.0177677
-0.0211958
-0.0244296
-0.0274138
-0.0300994
-0.0324431
-0.0344077
-0.0359612
-0.0370767
-0.0377319
-0.0379089
-0.0375935
-0.0367754
-0.0354472
-0.0336046
-0.031246
-0.028372
-0.0249853
-0.0210905
-0.0166937
-0.0118025
-0.00642564
-0.00057311
0.00574437
0.0125153
0.0197278
0.0273692
0.0354269
0.0438876
0.052738
0.0619646
0.0715539
0.0814927
0.0917678
0.102366
0.113275
0.124482
0.135974
0.147739
0.159766
0.172043
0.18456
0.197306
0.21027
0.223443
0.236816
0.25038
0.264125
0.278044
0.292128
0.306371
0.320766
0.335305
0.349982
0.364791
0.379727
0.394784
0.409956
0.425239
0.440628
0.456118
0.471706
0.487387
0.503157
0.519013
0.53495
0.550965
0.567054
0.583215
0.599442
0.615732
0.632083
0.64849
0.664948
0.681455
0.698006
0.714597
0.731223
0.747878
0.764559
0.781258
0.797972
0.814692
0.831413
0.848128
0.864828
0.881506
0.898153
0.91476
0.931317
0.947814
0.964239
0.980581
0.996828
1.01297
1.02898
1.04486
1.06059
1.07615
1.09152
1.1067
1.12165
1.13637
1.15083
1.16501
1.1789
1.19246
1.20569
1.21856
1.23105
1.24313
1.25478
1.26599
1.27673
1.28698
1.29672
1.30592
1.31457
1.32266
1.33016
1.33705
1.34333
1.34898
1.354
1.35837
1.36208
1.36515
1.36756
1.36933
1.37046
1.37097
1.37087
1.37018
1.36894
1.36718
1.36493
1.36225
1.35918
1.35579
1.35213
1.34829
1.34435
1.34038
1.33648
1.33275
1.32928
1.32617
1.32352
1.32138
1.31972
0.0165066
0.0143697
0.0120183
0.00938559
0.00642802
0.00322005
-0.000162113
-0.00364955
-0.00717407
-0.0106692
-0.0140719
-0.0173233
-0.0203696
-0.0231615
-0.0256553
-0.0278119
-0.0295973
-0.0309822
-0.0319416
-0.0324549
-0.0325049
-0.0320785
-0.0311654
-0.0297585
-0.0278534
-0.0254482
-0.0225431
-0.0191404
-0.0152438
-0.0108589
-0.00599246
-0.00065265
0.00515147
0.01141
0.0181122
0.0252471
0.0328028
0.0407674
0.0491285
0.0578733
0.0669892
0.0764634
0.0862833
0.0964362
0.10691
0.117692
0.12877
0.140132
0.151766
0.163662
0.175809
0.188195
0.20081
0.213645
0.22669
0.239935
0.253373
0.266993
0.280789
0.294752
0.308875
0.323151
0.337574
0.352136
0.366832
0.381655
0.396601
0.411664
0.426839
0.442122
0.457506
0.472989
0.488566
0.504233
0.519985
0.535819
0.551731
0.567717
0.583773
0.599897
0.616083
0.632327
0.648627
0.664978
0.681375
0.697815
0.714293
0.730803
0.747342
0.763903
0.780481
0.797069
0.813663
0.830254
0.846835
0.8634
0.879939
0.896445
0.912907
0.929316
0.945662
0.961934
0.978119
0.994207
1.01018
1.02604
1.04175
1.05731
1.0727
1.0879
1.10291
1.11769
1.13224
1.14652
1.16054
1.17426
1.18766
1.20072
1.21344
1.22577
1.2377
1.24922
1.26029
1.2709
1.28103
1.29066
1.29977
1.30834
1.31635
1.32379
1.33065
1.3369
1.34254
1.34756
1.35195
1.35571
1.35883
1.36133
1.36319
1.36444
1.36508
1.36513
1.36462
1.36356
1.362
1.35996
1.35749
1.35463
1.35145
1.34799
1.34433
1.34053
1.33667
1.33282
1.32906
1.32548
1.32216
1.31918
1.31648
1.31398
0.0220989
0.019169
0.0162748
0.0132824
0.0100663
0.00668841
0.00321493
-0.000298993
-0.00379781
-0.00722602
-0.0105303
-0.0136603
-0.0165692
-0.0192142
-0.0215565
-0.0235614
-0.0251984
-0.026441
-0.0272665
-0.027656
-0.0275937
-0.0270673
-0.0260674
-0.0245871
-0.0226223
-0.020171
-0.0172332
-0.0138108
-0.00990726
-0.00552765
-0.000678251
0.00463347
0.0103991
0.0166093
0.0232542
0.0303234
0.0378058
0.04569
0.0539643
0.0626167
0.071635
0.0810072
0.0907212
0.100765
0.111126
0.121794
0.132756
0.144
0.155516
0.167293
0.179319
0.191585
0.204081
0.216796
0.229722
0.24285
0.25617
0.269675
0.283355
0.297205
0.311216
0.325381
0.339693
0.354147
0.368735
0.383453
0.398294
0.413253
0.428325
0.443506
0.458789
0.474172
0.489649
0.505216
0.520869
0.536603
0.552416
0.568303
0.58426
0.600283
0.616368
0.632511
0.648708
0.664955
0.681247
0.69758
0.713949
0.73035
0.746776
0.763223
0.779685
0.796156
0.812628
0.829097
0.845553
0.86199
0.878398
0.894771
0.911098
0.927369
0.943575
0.959704
0.975745
0.991686
1.00751
1.02322
1.03878
1.05418
1.06942
1.08447
1.09932
1.11395
1.12834
1.14248
1.15634
1.16991
1.18317
1.1961
1.20867
1.22087
1.23268
1.24407
1.25503
1.26554
1.27557
1.28511
1.29414
1.30264
1.3106
1.318
1.32482
1.33106
1.33669
1.34173
1.34614
1.34995
1.35313
1.3557
1.35765
1.35901
1.35977
1.35995
1.35958
1.35868
1.35728
1.3554
1.3531
1.3504
1.34737
1.34405
1.34049
1.33677
1.33294
1.32906
1.32521
1.32144
1.31783
1.31445
1.31114
1.30776
0.0279822
0.0242404
0.020771
0.0173767
0.013853
0.0102519
0.0066314
0.00303462
-0.000494109
-0.00390919
-0.00716612
-0.0102224
-0.0130381
-0.0155763
-0.0178031
-0.0196883
-0.0212049
-0.0223293
-0.0230414
-0.0233241
-0.0231632
-0.0225476
-0.0214686
-0.0199202
-0.0178985
-0.0154018
-0.01243
-0.00898501
-0.00507003
-0.000689774
0.0041498
0.00944167
0.0151779
0.0213498
0.0279481
0.0349628
0.0423835
0.0501994
0.0583992
0.0669715
0.0759048
0.0851876
0.0948084
0.104755
0.115017
0.125583
0.13644
0.147579
0.158988
0.170656
0.182573
0.19473
0.207116
0.219722
0.232539
0.245558
0.25877
0.272167
0.285741
0.299484
0.31339
0.327451
0.341661
0.356012
0.3705
0.385117
0.399859
0.41472
0.429694
0.444778
0.459965
0.475252
0.490633
0.506105
0.521663
0.537303
0.55302
0.568812
0.584673
0.6006
0.616588
0.632633
0.648732
0.664879
0.68107
0.697301
0.713567
0.729862
0.746182
0.762521
0.778872
0.795231
0.811589
0.827942
0.84428
0.860596
0.876883
0.893131
0.909332
0.925475
0.941551
0.957549
0.973457
0.989263
1.00496
1.02052
1.03594
1.05121
1.06631
1.08122
1.09593
1.11043
1.12468
1.13869
1.15242
1.16586
1.17899
1.19179
1.20425
1.21633
1.22803
1.23933
1.25019
1.26061
1.27056
1.28004
1.28901
1.29746
1.30537
1.31274
1.31955
1.32578
1.33142
1.33647
1.34092
1.34477
1.34801
1.35065
1.35269
1.35414
1.35501
1.35531
1.35506
1.35428
1.35301
1.35126
1.34908
1.3465
1.34357
1.34033
1.33682
1.33311
1.32925
1.32528
1.32126
1.31724
1.31329
1.30947
1.30553
1.30125
0.0340051
0.0294514
0.0253902
0.0215657
0.0176988
0.0138338
0.0100223
0.00629697
0.00269234
-0.000754803
-0.00400792
-0.00703169
-0.00979257
-0.0122592
-0.0144026
-0.0161967
-0.0176181
-0.0186464
-0.0192638
-0.0194553
-0.0192085
-0.0185136
-0.017363
-0.0157515
-0.0136758
-0.0111344
-0.00812765
-0.00465731
-0.000726649
0.00365976
0.00849621
0.013776
0.0194916
0.0256347
0.0321964
0.0391674
0.0465375
0.0542965
0.0624336
0.0709379
0.0797983
0.089004
0.0985436
0.108406
0.118581
0.129056
0.139821
0.150865
0.162178
0.173749
0.185568
0.197626
0.209913
0.222419
0.235136
0.248056
0.261168
0.274466
0.287942
0.301587
0.315396
0.32936
0.343473
0.357729
0.372122
0.386646
0.401294
0.416062
0.430944
0.445936
0.461032
0.476227
0.491518
0.506899
0.522366
0.537915
0.553542
0.569242
0.585012
0.600847
0.616742
0.632694
0.648698
0.66475
0.680845
0.696979
0.713146
0.729341
0.74556
0.761795
0.778042
0.794295
0.810546
0.826789
0.843016
0.85922
0.875393
0.891526
0.907609
0.923634
0.93959
0.955467
0.971252
0.986936
1.0025
1.01795
1.03325
1.04839
1.06336
1.07815
1.09274
1.10711
1.12125
1.13514
1.14875
1.16208
1.17511
1.1878
1.20016
1.21215
1.22376
1.23497
1.24576
1.25611
1.26601
1.27542
1.28435
1.29277
1.30066
1.30801
1.31481
1.32104
1.3267
1.33178
1.33627
1.34017
1.34347
1.34617
1.34829
1.34982
1.35078
1.35118
1.35103
1.35036
1.34918
1.34754
1.34544
1.34294
1.34006
1.33685
1.33335
1.3296
1.32565
1.32154
1.31731
1.313
1.30868
1.30438
1.29979
1.29461
0.040039
0.0346846
0.0300267
0.0257548
0.02152
0.0173608
0.0133242
0.00943392
0.00571592
0.00219927
-0.00108663
-0.00411297
-0.00685206
-0.00927777
-0.0113658
-0.0130942
-0.014443
-0.0153947
-0.0159343
-0.0160488
-0.0157276
-0.0149626
-0.0137472
-0.0120772
-0.00994998
-0.00736466
-0.00432185
-0.000823592
0.00312673
0.00752456
0.0123643
0.0176394
0.0233426
0.029466
0.036001
0.0429385
0.0502688
0.057982
0.0660677
0.0745156
0.083315
0.0924553
0.101926
0.111716
0.121814
0.132211
0.142895
0.153856
0.165084
0.176569
0.188301
0.20027
0.212468
0.224884
0.237511
0.25034
0.263362
0.27657
0.289955
0.30351
0.317229
0.331104
0.345128
0.359296
0.3736
0.388036
0.402596
0.417277
0.432073
0.446978
0.461987
0.477097
0.492301
0.507596
0.522977
0.53844
0.55398
0.569594
0.585276
0.601023
0.61683
0.632693
0.648607
0.664568
0.680571
0.696612
0.712686
0.728786
0.744908
0.761047
0.777195
0.793348
0.809498
0.825638
0.841762
0.857861
0.873928
0.889953
0.905929
0.921844
0.93769
0.953456
0.969131
0.984703
1.00016
1.01549
1.03068
1.04571
1.06058
1.07526
1.08974
1.104
1.11804
1.13182
1.14534
1.15858
1.17151
1.18413
1.1964
1.20832
1.21986
1.231
1.24173
1.25203
1.26188
1.27126
1.28016
1.28855
1.29643
1.30378
1.31059
1.31684
1.32252
1.32764
1.33217
1.33611
1.33947
1.34224
1.34443
1.34604
1.34708
1.34756
1.3475
1.34691
1.34581
1.34423
1.3422
1.33974
1.33688
1.33366
1.33012
1.32629
1.32221
1.31792
1.31344
1.30881
1.30408
1.29929
1.29404
1.28799
0.0459733
0.0398365
0.0345852
0.0298572
0.0252385
0.0207634
0.016476
0.0123924
0.00853102
0.00491428
0.00156526
-0.00149312
-0.00423852
-0.00664967
-0.00870669
-0.0103913
-0.0116872
-0.0125797
-0.0130563
-0.0131063
-0.0127211
-0.0118939
-0.0106197
-0.00889523
-0.00671868
-0.00408983
-0.0010098
0.00251899
0.00649292
0.0109073
0.0157565
0.0210341
0.0267331
0.0328455
0.0393632
0.0462772
0.0535781
0.0612563
0.0693018
0.0777045
0.0864544
0.0955409
0.104954
0.114683
0.124717
0.135047
0.145661
0.15655
0.167704
0.179114
0.190769
0.20266
0.214778
0.227115
0.239661
0.252409
0.265349
0.278475
0.291778
0.305251
0.318888
0.33268
0.346623
0.360708
0.374931
0.389285
0.403764
0.418364
0.433078
0.447902
0.46283
0.477859
0.492982
0.508195
0.523495
0.538876
0.554334
0.569865
0.585464
0.601127
0.61685
0.632628
0.648457
0.664332
0.680249
0.696202
0.712186
0.728197
0.744228
0.760275
0.776331
0.792389
0.808445
0.824489
0.840517
0.856518
0.872487
0.888413
0.904289
0.920105
0.93585
0.951516
0.96709
0.982561
0.997918
1.01315
1.02824
1.04317
1.05794
1.07253
1.08692
1.10109
1.11504
1.12874
1.14218
1.15534
1.1682
1.18074
1.19295
1.20481
1.2163
1.2274
1.23809
1.24835
1.25817
1.26753
1.27642
1.28481
1.29269
1.30005
1.30687
1.31315
1.31887
1.32402
1.3286
1.3326
1.33602
1.33885
1.34111
1.34279
1.3439
1.34446
1.34446
1.34394
1.3429
1.34136
1.33936
1.33691
1.33404
1.33078
1.32717
1.32323
1.31898
1.31447
1.30972
1.30474
1.29959
1.2943
1.28841
1.28151
0.0517126
0.0448163
0.03898
0.0337936
0.0287818
0.0239764
0.0194194
0.0151207
0.0110925
0.00735112
0.00391421
0.000799417
-0.00197581
-0.00439464
-0.00644128
-0.00810111
-0.00936096
-0.0102092
-0.0106357
-0.0106322
-0.0101918
-0.0093094
-0.00798142
-0.00620567
-0.00398134
-0.00130894
0.00180977
0.00537189
0.00937345
0.0138095
0.0186744
0.0239617
0.0296643
0.0357745
0.0422841
0.0491842
0.0564659
0.0641197
0.0721359
0.0805047
0.0892162
0.0982604
0.107627
0.117306
0.127288
0.137562
0.148118
0.158946
0.170037
0.181382
0.19297
0.204794
0.216843
0.229109
0.241584
0.254259
0.267127
0.280179
0.293408
0.306807
0.320369
0.334087
0.347955
0.361965
0.376113
0.390392
0.404796
0.41932
0.433958
0.448707
0.463559
0.478511
0.493558
0.508695
0.523918
0.539222
0.554602
0.570055
0.585576
0.60116
0.616803
0.632501
0.648249
0.664042
0.679876
0.695746
0.711647
0.727573
0.743519
0.759479
0.775448
0.791419
0.807386
0.823341
0.839279
0.85519
0.871068
0.886904
0.902688
0.918413
0.934068
0.949642
0.965126
0.980508
0.995776
1.01092
1.02592
1.04077
1.05546
1.06997
1.08428
1.09838
1.11225
1.12588
1.13926
1.15235
1.16516
1.17765
1.18981
1.20163
1.21308
1.22415
1.23481
1.24506
1.25487
1.26423
1.27311
1.28151
1.28941
1.29679
1.30365
1.30996
1.31572
1.32092
1.32555
1.32961
1.33309
1.33599
1.33831
1.34006
1.34124
1.34185
1.34192
1.34144
1.34044
1.33893
1.33693
1.33447
1.33157
1.32825
1.32453
1.32045
1.31602
1.31127
1.30621
1.30087
1.29529
1.2895
1.28298
1.27527
0.0571743
0.0495435
0.0431344
0.0374919
0.0320831
0.0269384
0.022099
0.0175692
0.013356
0.00947078
0.00592614
0.00273511
-8.92634e-05
-0.00253424
-0.00458775
-0.00623863
-0.00747677
-0.00829331
-0.00868069
-0.00863271
-0.00814452
-0.00721265
-0.00583488
-0.00401026
-0.00173902
0.000977483
0.00413676
0.00773531
0.0117687
0.0162319
0.0211187
0.0264228
0.032137
0.0382534
0.044764
0.0516601
0.0589326
0.0665724
0.0745699
0.0829157
0.0916001
0.100613
0.109945
0.119586
0.129526
0.139755
0.150264
0.161042
0.172081
0.183372
0.194904
0.206669
0.218659
0.230865
0.243277
0.25589
0.268693
0.281681
0.294845
0.308178
0.321673
0.335324
0.349123
0.363066
0.377145
0.391355
0.405689
0.420144
0.434713
0.449391
0.464173
0.479054
0.49403
0.509095
0.524246
0.539477
0.554785
0.570164
0.585611
0.60112
0.616688
0.63231
0.647982
0.663698
0.679454
0.695246
0.711067
0.726914
0.74278
0.758659
0.774547
0.790436
0.80632
0.822193
0.838048
0.853876
0.869671
0.885424
0.901126
0.916768
0.932341
0.947834
0.963238
0.97854
0.993731
1.0088
1.02373
1.03851
1.05312
1.06756
1.08181
1.09585
1.10966
1.12324
1.13656
1.14961
1.16238
1.17483
1.18697
1.19876
1.21019
1.22124
1.2319
1.24215
1.25196
1.26133
1.27023
1.27866
1.28658
1.294
1.3009
1.30726
1.31307
1.31833
1.32302
1.32714
1.33068
1.33365
1.33604
1.33785
1.33909
1.33976
1.33987
1.33943
1.33845
1.33695
1.33495
1.33245
1.32949
1.32608
1.32224
1.318
1.31336
1.30836
1.30299
1.29728
1.29126
1.28498
1.27785
1.26934
0.062286
0.0539467
0.0469794
0.0408865
0.0350808
0.0295923
0.024462
0.01969
0.0152785
0.0112347
0.00756679
0.00428377
0.00139471
-0.00109136
-0.00316584
-0.00482075
-0.00604891
-0.00684413
-0.00720124
-0.00711621
-0.0065861
-0.00560909
-0.0041844
-0.00231234
5.75179e-06
0.00276756
0.0059698
0.00960833
0.0136783
0.018174
0.0230893
0.0284175
0.0341512
0.0402826
0.0468033
0.0537049
0.0609783
0.0686144
0.0766041
0.0849377
0.0936059
0.102599
0.111907
0.121521
0.13143
0.141626
0.152098
0.162838
0.173835
0.185082
0.196568
0.208286
0.220226
0.232381
0.244741
0.257299
0.270048
0.282979
0.296086
0.309361
0.322797
0.336388
0.350127
0.364008
0.378025
0.392173
0.406445
0.420836
0.43534
0.449954
0.464671
0.479486
0.494396
0.509395
0.524478
0.539642
0.554881
0.570191
0.585568
0.601008
0.616505
0.632056
0.647655
0.663299
0.678983
0.6947
0.710448
0.72622
0.74201
0.757814
0.773626
0.789439
0.805248
0.821045
0.836823
0.852575
0.868294
0.883971
0.899599
0.915167
0.930666
0.946088
0.961421
0.976654
0.991777
1.00678
1.02164
1.03636
1.05092
1.06531
1.0795
1.09349
1.10727
1.1208
1.13409
1.14711
1.15985
1.17229
1.1844
1.19619
1.20761
1.21867
1.22934
1.2396
1.24943
1.25883
1.26776
1.27622
1.2842
1.29166
1.29861
1.30503
1.3109
1.31623
1.32099
1.32517
1.32879
1.33183
1.33428
1.33615
1.33745
1.33817
1.33832
1.33791
1.33694
1.33544
1.33341
1.33088
1.32784
1.32433
1.32035
1.31592
1.31107
1.30579
1.30011
1.29402
1.28757
1.28081
1.27307
1.26382
0.0669841
0.0579624
0.0504528
0.0439174
0.0377179
0.0318846
0.0264589
0.0214373
0.0168182
0.0126048
0.00880201
0.00541489
0.00244903
-8.99021e-05
-0.00219648
-0.00386571
-0.00509317
-0.00587522
-0.006209
-0.00609257
-0.00552484
-0.00450564
-0.0030357
-0.0011166
0.00124915
0.00405822
0.00730647
0.0109891
0.0151006
0.0196349
0.0245855
0.0299453
0.0357067
0.0418617
0.0484019
0.0553186
0.062603
0.0702459
0.0782383
0.0865707
0.0952337
0.104218
0.113513
0.123111
0.133001
0.143174
0.153621
0.164333
0.175299
0.186513
0.197964
0.209644
0.221544
0.233657
0.245974
0.258488
0.27119
0.284073
0.297131
0.310355
0.32374
0.337279
0.350965
0.364792
0.378754
0.392845
0.407061
0.421394
0.435841
0.450395
0.465052
0.479808
0.494656
0.509593
0.524614
0.539715
0.55489
0.570136
0.585448
0.600822
0.616253
0.631737
0.64727
0.662846
0.678461
0.69411
0.709788
0.72549
0.741211
0.756945
0.772686
0.788429
0.804167
0.819894
0.835603
0.851286
0.866936
0.882545
0.898105
0.913607
0.929042
0.944401
0.959672
0.974847
0.989913
1.00486
1.01967
1.03434
1.04886
1.0632
1.07735
1.09131
1.10506
1.11857
1.13184
1.14484
1.15757
1.17
1.18212
1.19391
1.20535
1.21642
1.22711
1.2374
1.24727
1.25671
1.26569
1.27421
1.28224
1.28977
1.29678
1.30327
1.30922
1.31461
1.31945
1.32371
1.3274
1.33051
1.33303
1.33497
1.33632
1.33709
1.33727
1.33689
1.33593
1.33442
1.33235
1.32976
1.32664
1.32301
1.31888
1.31426
1.30918
1.30363
1.29762
1.29115
1.28428
1.27704
1.26873
1.25875
0.0712123
0.0615336
0.0534981
0.0465297
0.0399417
0.0337652
0.0280425
0.0227673
0.0179344
0.0135441
0.00959797
0.00609785
0.00304616
0.00044551
-0.00170159
-0.00339291
-0.00462664
-0.00540153
-0.00571698
-0.00557301
-0.00497038
-0.00391056
-0.00239576
-0.00042893
0.00198624
0.00484536
0.00814344
0.0118749
0.0160336
0.020613
0.0256061
0.0310054
0.0368029
0.0429904
0.0495595
0.0565012
0.0638067
0.071467
0.0794727
0.0878147
0.0964836
0.10547
0.114764
0.124357
0.134239
0.1444
0.154833
0.165527
0.176473
0.187664
0.199089
0.210742
0.222612
0.234693
0.246976
0.259454
0.272119
0.284963
0.29798
0.311162
0.324504
0.337997
0.351637
0.365417
0.379331
0.393373
0.407538
0.42182
0.436214
0.450715
0.465318
0.480018
0.494811
0.509691
0.524655
0.539697
0.554813
0.57
0.585251
0.600564
0.615934
0.631355
0.646825
0.662337
0.677889
0.693473
0.709087
0.724724
0.74038
0.756049
0.771726
0.787404
0.803078
0.818741
0.834386
0.850006
0.865595
0.881143
0.896644
0.912088
0.927467
0.942771
0.95799
0.973114
0.988133
1.00304
1.01781
1.03244
1.04692
1.06123
1.07536
1.0893
1.10302
1.11653
1.12979
1.14279
1.15552
1.16796
1.1801
1.19191
1.20338
1.21448
1.22522
1.23555
1.24548
1.25497
1.26401
1.2726
1.2807
1.2883
1.2954
1.30197
1.308
1.31348
1.3184
1.32275
1.32652
1.3297
1.3323
1.3343
1.33571
1.33652
1.33674
1.33638
1.33542
1.33389
1.33179
1.32913
1.32591
1.32215
1.31787
1.31306
1.30773
1.30191
1.29557
1.28873
1.28144
1.27374
1.26487
1.25419
0.0749201
0.0646088
0.0560639
0.0486729
0.0417032
0.0351872
0.0291684
0.0236379
0.018588
0.0140163
0.00992124
0.00630205
0.00315827
0.000489705
-0.00170382
-0.00342264
-0.00466741
-0.00543913
-0.00573931
-0.00556994
-0.00493353
-0.0038332
-0.00227268
-0.000256276
0.00221111
0.00512403
0.00847656
0.0122623
0.0164746
0.0211061
0.0261493
0.0315963
0.0374387
0.0436681
0.0502757
0.0572525
0.0645896
0.0722778
0.0803078
0.0886705
0.0973562
0.106356
0.11566
0.125259
0.135143
0.145304
0.155733
0.16642
0.177358
0.188536
0.199946
0.211581
0.223431
0.23549
0.247748
0.260199
0.272835
0.285649
0.298633
0.311782
0.325087
0.338544
0.352145
0.365884
0.379756
0.393755
0.407876
0.422113
0.43646
0.450914
0.465468
0.480118
0.49486
0.509689
0.5246
0.539589
0.554651
0.569782
0.584978
0.600234
0.615546
0.63091
0.646321
0.661775
0.677267
0.692792
0.708346
0.723923
0.739519
0.755128
0.770745
0.786364
0.801979
0.817584
0.833171
0.848735
0.864269
0.879763
0.895212
0.910606
0.925936
0.941194
0.95637
0.971454
0.986435
1.0013
1.01604
1.03065
1.04511
1.0594
1.07352
1.08744
1.10117
1.11467
1.12794
1.14095
1.1537
1.16617
1.17834
1.19018
1.20169
1.21285
1.22364
1.23404
1.24403
1.25359
1.26272
1.27138
1.27957
1.28726
1.29445
1.30111
1.30724
1.31282
1.31783
1.32228
1.32614
1.32941
1.33208
1.33416
1.33562
1.33648
1.33674
1.33639
1.33543
1.33388
1.33174
1.329
1.32569
1.3218
1.31735
1.31234
1.30678
1.30067
1.29401
1.28681
1.2791
1.27095
1.26154
1.2502
0.078062
0.0671411
0.058103
0.0503003
0.0429568
0.0361063
0.029794
0.0240091
0.0187413
0.0139858
0.00973886
0.00599706
0.00275738
1.71034e-05
-0.00222644
-0.00397598
-0.00523444
-0.00600499
-0.00629113
-0.00609673
-0.00542608
-0.00428393
-0.0026755
-0.000606474
0.00191703
0.0048885
0.00830106
0.0121475
0.0164203
0.0211116
0.0262132
0.0317166
0.0376132
0.0438941
0.0505503
0.0575726
0.0649519
0.0726789
0.0807442
0.0891386
0.0978525
0.106877
0.116201
0.125818
0.135716
0.145888
0.156324
0.167016
0.177954
0.18913
0.200536
0.212163
0.224003
0.236048
0.248292
0.260725
0.273341
0.286132
0.299093
0.312215
0.325492
0.338919
0.352488
0.366194
0.380031
0.393994
0.408077
0.422274
0.436581
0.450992
0.465503
0.480109
0.494806
0.509587
0.524451
0.539391
0.554403
0.569484
0.584628
0.599832
0.615092
0.630402
0.645759
0.661158
0.676595
0.692065
0.707564
0.723086
0.738627
0.754181
0.769744
0.785309
0.80087
0.816422
0.831959
0.847473
0.862957
0.878405
0.893808
0.909159
0.924448
0.939668
0.954809
0.969861
0.984814
0.999656
1.01438
1.02897
1.04341
1.0577
1.07181
1.08574
1.09947
1.11299
1.12628
1.13932
1.15211
1.16461
1.17682
1.18872
1.20029
1.21151
1.22237
1.23285
1.24292
1.25257
1.26179
1.27055
1.27884
1.28664
1.29393
1.30071
1.30694
1.31263
1.31775
1.3223
1.32626
1.32962
1.33238
1.33453
1.33606
1.33698
1.33727
1.33694
1.33598
1.33441
1.33222
1.32941
1.326
1.32198
1.31736
1.31215
1.30635
1.29996
1.29299
1.28542
1.27731
1.26872
1.25879
1.24681
0.0805967
0.0690875
0.0595717
0.0513684
0.0436596
0.0364808
0.0298792
0.0238421
0.0183573
0.013418
0.00901837
0.00515261
0.00181544
-0.000998179
-0.0032932
-0.00507459
-0.00634739
-0.00711683
-0.00738833
-0.00716761
-0.00646069
-0.00527393
-0.00361406
-0.0014881
0.00109661
0.00413246
0.00761161
0.0115259
0.0158671
0.0206265
0.0257954
0.0313647
0.0373252
0.0436677
0.0503829
0.0574615
0.0648939
0.0726709
0.0807828
0.0892202
0.0979736
0.107034
0.116391
0.126036
0.13596
0.146153
0.156608
0.167314
0.178264
0.189448
0.200859
0.212489
0.224329
0.236371
0.248608
0.261032
0.273637
0.286415
0.299359
0.312463
0.32572
0.339124
0.352669
0.366349
0.380158
0.39409
0.408141
0.422305
0.436577
0.450952
0.465426
0.479992
0.494648
0.509388
0.524208
0.539104
0.554071
0.569106
0.584203
0.59936
0.614571
0.629832
0.645139
0.660488
0.675875
0.691294
0.706742
0.722214
0.737704
0.753208
0.768721
0.784237
0.799751
0.815256
0.830746
0.846216
0.861658
0.877065
0.89243
0.907745
0.923001
0.938191
0.953305
0.968333
0.983266
0.998093
1.0128
1.02739
1.04183
1.05612
1.07024
1.08419
1.09794
1.11148
1.12481
1.13789
1.15072
1.16328
1.17555
1.18751
1.19916
1.21046
1.2214
1.23197
1.24214
1.2519
1.26123
1.2701
1.27851
1.28642
1.29384
1.30074
1.30709
1.3129
1.31814
1.3228
1.32687
1.33034
1.3332
1.33543
1.33704
1.33801
1.33834
1.33804
1.33709
1.33549
1.33326
1.33038
1.32687
1.32272
1.31793
1.31252
1.30648
1.29982
1.29253
1.28461
1.27611
1.26709
1.25665
1.24407
0.0824859
0.0704083
0.0604294
0.0518364
0.0437711
0.036271
0.0293852
0.0230996
0.0174004
0.0122791
0.00772769
0.00373858
0.000304322
-0.00258226
-0.00492822
-0.0067406
-0.00802647
-0.00879301
-0.00904752
-0.00879752
-0.00805072
-0.00681511
-0.00509884
-0.00291032
-0.000258085
0.00284914
0.00640248
0.0103929
0.0148111
0.0196478
0.0248935
0.0305386
0.0365734
0.0429883
0.0497736
0.0569195
0.0644165