/*--------------------------------*- C++ -*----------------------------------*\
  =========                 |
  \\      /  F ield         | OpenFOAM: The Open Source CFD Toolbox
   \\    /   O peration     | Website:  https://openfoam.org
    \\  /    A nd           | Version:  7
     \\/     M anipulation  |
\*---------------------------------------------------------------------------*/
FoamFile
{
    version     2.0;
    format      ascii;
    class       volScalarField;
    location    "0.35";
    object      p;
}
// * * * * * * * * * * * * * * * * * * * * * * * * * * * * * * * * * * * * * //

dimensions      [0 2 -2 0 0 0 0];

internalField   nonuniform List<scalar> 
51200
(
-5.31241e-08
-1.07809e-07
-1.98585e-07
-3.80116e-07
-5.72774e-07
-7.45045e-07
-9.11375e-07
-1.09947e-06
-1.32955e-06
-1.61213e-06
-1.95519e-06
-2.36627e-06
-2.84768e-06
-3.40445e-06
-4.03502e-06
-4.73381e-06
-5.50223e-06
-6.33734e-06
-7.24198e-06
-8.21139e-06
-9.23776e-06
-1.03184e-05
-1.14499e-05
-1.26304e-05
-1.38605e-05
-1.51337e-05
-1.64456e-05
-1.77941e-05
-1.91747e-05
-2.05875e-05
-2.20307e-05
-2.34984e-05
-2.49883e-05
-2.64983e-05
-2.80261e-05
-2.957e-05
-3.1127e-05
-3.26933e-05
-3.42675e-05
-3.58496e-05
-3.744e-05
-3.90374e-05
-4.06385e-05
-4.22398e-05
-4.38391e-05
-4.54356e-05
-4.70301e-05
-4.86237e-05
-5.02147e-05
-5.17998e-05
-5.33778e-05
-5.49501e-05
-5.65169e-05
-5.8078e-05
-5.96342e-05
-6.11835e-05
-6.27236e-05
-6.42563e-05
-6.57833e-05
-6.73026e-05
-6.88128e-05
-7.03144e-05
-7.18073e-05
-7.32902e-05
-7.47639e-05
-7.62307e-05
-7.76911e-05
-7.91433e-05
-8.05874e-05
-8.2025e-05
-8.3457e-05
-8.48833e-05
-8.6305e-05
-8.77238e-05
-8.91404e-05
-9.05545e-05
-9.19669e-05
-9.33797e-05
-9.47945e-05
-9.62119e-05
-9.76321e-05
-9.90552e-05
-0.000100481
-0.000101908
-0.000103339
-0.000104775
-0.000106218
-0.000107668
-0.000109124
-0.000110586
-0.000112054
-0.000113529
-0.000115013
-0.000116504
-0.000118005
-0.000119516
-0.000121036
-0.000122566
-0.000124106
-0.00012566
-0.000127228
-0.000128809
-0.000130399
-0.000131997
-0.000133602
-0.000135217
-0.000136841
-0.000138471
-0.000140105
-0.000141743
-0.000143384
-0.000145028
-0.000146674
-0.00014832
-0.000149967
-0.000151611
-0.000153251
-0.000154886
-0.000156516
-0.000158142
-0.000159761
-0.000161367
-0.000162958
-0.000164534
-0.000166094
-0.000167635
-0.000169151
-0.00017064
-0.0001721
-0.000173531
-0.000174929
-0.000176291
-0.000177615
-0.000178898
-0.000180138
-0.000181333
-0.000182479
-0.000183571
-0.000184605
-0.00018558
-0.00018649
-0.000187333
-0.000188103
-0.0001888
-0.000189421
-0.000189965
-0.00019043
-0.000190812
-0.000191107
-0.000191317
-0.000191442
-0.000191484
-0.000191446
-0.000191336
-0.000191165
-0.000190947
-0.000190702
-0.000190458
-0.000190261
-0.000190159
-3.10492e-07
-4.92156e-07
-6.51178e-07
-8.51143e-07
-1.03827e-06
-1.20293e-06
-1.36944e-06
-1.56119e-06
-1.79726e-06
-2.08626e-06
-2.43596e-06
-2.84624e-06
-3.32115e-06
-3.86455e-06
-4.4761e-06
-5.15877e-06
-5.90486e-06
-6.71675e-06
-7.59263e-06
-8.52794e-06
-9.52177e-06
-1.05687e-05
-1.16647e-05
-1.28112e-05
-1.40029e-05
-1.52371e-05
-1.65122e-05
-1.78222e-05
-1.91667e-05
-2.05451e-05
-2.19521e-05
-2.33865e-05
-2.48457e-05
-2.6325e-05
-2.78231e-05
-2.93384e-05
-3.08676e-05
-3.24093e-05
-3.39619e-05
-3.55228e-05
-3.70914e-05
-3.86677e-05
-4.02496e-05
-4.18347e-05
-4.34209e-05
-4.50058e-05
-4.65895e-05
-4.81742e-05
-4.97592e-05
-5.13417e-05
-5.29211e-05
-5.44955e-05
-5.6063e-05
-5.76259e-05
-5.91854e-05
-6.07393e-05
-6.22872e-05
-6.38307e-05
-6.53688e-05
-6.69e-05
-6.84245e-05
-6.99426e-05
-7.14524e-05
-7.29529e-05
-7.44453e-05
-7.59312e-05
-7.74108e-05
-7.8884e-05
-8.03514e-05
-8.18133e-05
-8.32692e-05
-8.47196e-05
-8.61663e-05
-8.76102e-05
-8.90516e-05
-9.04913e-05
-9.1931e-05
-9.33719e-05
-9.4814e-05
-9.62572e-05
-9.7703e-05
-9.91522e-05
-0.000100604
-0.000102057
-0.000103513
-0.000104973
-0.000106439
-0.000107912
-0.000109391
-0.000110875
-0.000112366
-0.000113862
-0.000115364
-0.000116873
-0.000118389
-0.000119915
-0.00012145
-0.000122993
-0.000124547
-0.000126111
-0.000127686
-0.000129272
-0.000130868
-0.000132471
-0.00013408
-0.000135695
-0.000137316
-0.000138942
-0.000140572
-0.000142204
-0.000143838
-0.000145472
-0.000147106
-0.000148739
-0.00015037
-0.000151998
-0.00015362
-0.000155235
-0.000156844
-0.000158445
-0.000160037
-0.000161616
-0.00016318
-0.000164727
-0.000166256
-0.000167764
-0.000169247
-0.000170703
-0.000172129
-0.000173524
-0.000174886
-0.000176211
-0.000177497
-0.000178744
-0.000179947
-0.000181105
-0.000182214
-0.000183271
-0.000184273
-0.000185216
-0.000186097
-0.000186911
-0.000187656
-0.000188332
-0.000188937
-0.000189467
-0.000189922
-0.0001903
-0.000190599
-0.000190819
-0.000190962
-0.000191029
-0.000191025
-0.000190959
-0.000190841
-0.000190685
-0.000190507
-0.000190328
-0.000190174
-0.000190069
-7.67782e-07
-9.39964e-07
-1.09501e-06
-1.26745e-06
-1.42634e-06
-1.57185e-06
-1.72811e-06
-1.9172e-06
-2.15115e-06
-2.43928e-06
-2.78707e-06
-3.19492e-06
-3.66382e-06
-4.19393e-06
-4.79254e-06
-5.45691e-06
-6.18781e-06
-6.98271e-06
-7.83487e-06
-8.74572e-06
-9.71241e-06
-1.07311e-05
-1.18026e-05
-1.2921e-05
-1.40829e-05
-1.52879e-05
-1.65309e-05
-1.78108e-05
-1.91274e-05
-2.04756e-05
-2.18539e-05
-2.32612e-05
-2.46934e-05
-2.61481e-05
-2.76231e-05
-2.9114e-05
-3.06201e-05
-3.21418e-05
-3.36764e-05
-3.52215e-05
-3.67756e-05
-3.83363e-05
-3.99029e-05
-4.14754e-05
-4.30512e-05
-4.46273e-05
-4.62044e-05
-4.77823e-05
-4.93608e-05
-5.09407e-05
-5.25206e-05
-5.40961e-05
-5.56662e-05
-5.72327e-05
-5.87953e-05
-6.03538e-05
-6.19096e-05
-6.34624e-05
-6.50101e-05
-6.65518e-05
-6.80887e-05
-6.96198e-05
-7.11434e-05
-7.26594e-05
-7.41687e-05
-7.56713e-05
-7.71674e-05
-7.86584e-05
-8.01455e-05
-8.16278e-05
-8.31044e-05
-8.45763e-05
-8.6045e-05
-8.75108e-05
-8.89736e-05
-9.04352e-05
-9.18978e-05
-9.33625e-05
-9.48282e-05
-9.62944e-05
-9.77624e-05
-9.92332e-05
-0.000100707
-0.000102182
-0.00010366
-0.000105142
-0.000106629
-0.000108121
-0.000109618
-0.000111122
-0.000112632
-0.000114146
-0.000115665
-0.000117189
-0.000118721
-0.000120259
-0.000121806
-0.000123362
-0.000124927
-0.000126502
-0.000128085
-0.000129676
-0.000131275
-0.000132882
-0.000134494
-0.000136111
-0.00013773
-0.000139353
-0.000140979
-0.000142608
-0.000144236
-0.000145864
-0.00014749
-0.000149113
-0.000150732
-0.000152346
-0.000153953
-0.000155553
-0.000157144
-0.000158726
-0.000160295
-0.000161852
-0.000163394
-0.000164918
-0.000166422
-0.000167904
-0.000169361
-0.000170791
-0.000172191
-0.000173558
-0.00017489
-0.000176185
-0.000177442
-0.00017866
-0.000179834
-0.000180962
-0.000182041
-0.00018307
-0.000184046
-0.000184966
-0.000185822
-0.000186614
-0.000187341
-0.000188003
-0.000188595
-0.000189115
-0.000189563
-0.000189938
-0.000190238
-0.000190467
-0.000190623
-0.000190708
-0.000190728
-0.00019069
-0.000190604
-0.00019048
-0.000190329
-0.000190172
-0.000190022
-0.000189881
-1.39787e-06
-1.4649e-06
-1.54458e-06
-1.64476e-06
-1.75444e-06
-1.86835e-06
-2.00887e-06
-2.18798e-06
-2.41446e-06
-2.69586e-06
-3.03612e-06
-3.43862e-06
-3.90011e-06
-4.42415e-06
-5.00973e-06
-5.6602e-06
-6.37799e-06
-7.15555e-06
-7.992e-06
-8.88276e-06
-9.82603e-06
-1.08236e-05
-1.18722e-05
-1.29671e-05
-1.4107e-05
-1.52865e-05
-1.65039e-05
-1.77608e-05
-1.90528e-05
-2.0377e-05
-2.17326e-05
-2.31159e-05
-2.45253e-05
-2.59599e-05
-2.74145e-05
-2.88856e-05
-3.03733e-05
-3.18764e-05
-3.33938e-05
-3.49254e-05
-3.64676e-05
-3.80168e-05
-3.95728e-05
-4.11346e-05
-4.27004e-05
-4.42705e-05
-4.58438e-05
-4.74177e-05
-4.89927e-05
-5.05701e-05
-5.21479e-05
-5.37237e-05
-5.52976e-05
-5.68683e-05
-5.84348e-05
-5.9999e-05
-6.15623e-05
-6.31232e-05
-6.46799e-05
-6.62325e-05
-6.77806e-05
-6.93227e-05
-7.08581e-05
-7.23879e-05
-7.39124e-05
-7.54306e-05
-7.69429e-05
-7.84507e-05
-7.99549e-05
-8.14547e-05
-8.29498e-05
-8.44415e-05
-8.59307e-05
-8.74169e-05
-8.89003e-05
-9.03828e-05
-9.18664e-05
-9.33518e-05
-9.48384e-05
-9.63262e-05
-9.78153e-05
-9.93057e-05
-0.000100798
-0.000102292
-0.00010379
-0.000105292
-0.000106799
-0.000108309
-0.000109825
-0.000111346
-0.000112872
-0.000114403
-0.000115937
-0.000117477
-0.000119023
-0.000120575
-0.000122132
-0.000123698
-0.000125274
-0.000126859
-0.000128451
-0.000130048
-0.00013165
-0.00013326
-0.000134875
-0.000136492
-0.000138112
-0.000139733
-0.000141357
-0.000142982
-0.000144607
-0.000146229
-0.00014785
-0.000149466
-0.000151076
-0.000152678
-0.000154272
-0.000155859
-0.000157437
-0.000159002
-0.000160553
-0.00016209
-0.000163613
-0.000165119
-0.000166603
-0.000168063
-0.000169498
-0.000170906
-0.000172284
-0.000173629
-0.000174937
-0.000176208
-0.000177441
-0.000178634
-0.000179783
-0.000180886
-0.000181942
-0.000182948
-0.000183903
-0.000184802
-0.000185641
-0.000186416
-0.000187129
-0.000187778
-0.00018836
-0.000188873
-0.000189315
-0.000189687
-0.000189989
-0.000190222
-0.000190387
-0.000190485
-0.000190521
-0.000190501
-0.000190434
-0.000190324
-0.00019018
-0.000190018
-0.000189841
-0.000189643
-2.01913e-06
-1.9568e-06
-1.94616e-06
-1.9778e-06
-2.03369e-06
-2.11738e-06
-2.23711e-06
-2.40393e-06
-2.62315e-06
-2.89622e-06
-3.22857e-06
-3.62055e-06
-4.075e-06
-4.59054e-06
-5.16665e-06
-5.80739e-06
-6.50905e-06
-7.27205e-06
-8.09239e-06
-8.96517e-06
-9.89139e-06
-1.08694e-05
-1.18961e-05
-1.29707e-05
-1.40879e-05
-1.52441e-05
-1.64405e-05
-1.76747e-05
-1.89435e-05
-2.02469e-05
-2.15809e-05
-2.2943e-05
-2.4333e-05
-2.57473e-05
-2.71824e-05
-2.8637e-05
-3.01089e-05
-3.15959e-05
-3.30987e-05
-3.46163e-05
-3.61456e-05
-3.76854e-05
-3.92327e-05
-4.0785e-05
-4.23426e-05
-4.39064e-05
-4.54748e-05
-4.70464e-05
-4.86211e-05
-5.01973e-05
-5.17734e-05
-5.335e-05
-5.49266e-05
-5.65009e-05
-5.80728e-05
-5.96441e-05
-6.12147e-05
-6.27831e-05
-6.43492e-05
-6.59127e-05
-6.74721e-05
-6.90254e-05
-7.05732e-05
-7.21163e-05
-7.36546e-05
-7.5188e-05
-7.67171e-05
-7.82425e-05
-7.97639e-05
-8.12811e-05
-8.27949e-05
-8.43062e-05
-8.58149e-05
-8.73209e-05
-8.88252e-05
-9.03295e-05
-9.18344e-05
-9.33398e-05
-9.48465e-05
-9.63552e-05
-9.78652e-05
-9.93758e-05
-0.000100887
-0.0001024
-0.000103918
-0.000105439
-0.000106964
-0.000108494
-0.000110028
-0.000111567
-0.000113109
-0.000114656
-0.000116206
-0.000117762
-0.000119322
-0.000120888
-0.000122458
-0.000124036
-0.000125621
-0.000127215
-0.000128815
-0.000130419
-0.000132027
-0.000133639
-0.000135255
-0.000136874
-0.000138494
-0.000140115
-0.000141738
-0.000143361
-0.000144982
-0.0001466
-0.000148216
-0.000149826
-0.000151428
-0.00015302
-0.000154603
-0.000156177
-0.000157742
-0.000159292
-0.000160827
-0.000162348
-0.000163853
-0.000165341
-0.000166807
-0.000168249
-0.000169664
-0.000171052
-0.000172409
-0.000173733
-0.00017502
-0.000176269
-0.00017748
-0.00017865
-0.000179777
-0.000180858
-0.000181893
-0.00018288
-0.000183815
-0.000184695
-0.000185518
-0.00018628
-0.000186981
-0.000187619
-0.000188191
-0.000188696
-0.000189133
-0.000189504
-0.000189807
-0.000190044
-0.000190215
-0.000190321
-0.000190367
-0.000190358
-0.000190299
-0.000190194
-0.00019005
-0.000189876
-0.000189665
-0.000189404
-2.54245e-06
-2.35987e-06
-2.2662e-06
-2.23755e-06
-2.25268e-06
-2.30642e-06
-2.40761e-06
-2.56003e-06
-2.76827e-06
-3.03491e-06
-3.3585e-06
-3.74169e-06
-4.18628e-06
-4.6921e-06
-5.26275e-06
-5.89304e-06
-6.58326e-06
-7.3318e-06
-8.13506e-06
-8.99327e-06
-9.90468e-06
-1.08652e-05
-1.18747e-05
-1.29295e-05
-1.40253e-05
-1.51629e-05
-1.63399e-05
-1.75532e-05
-1.88026e-05
-2.00856e-05
-2.13997e-05
-2.27446e-05
-2.41167e-05
-2.55119e-05
-2.69296e-05
-2.83681e-05
-2.98247e-05
-3.12993e-05
-3.27901e-05
-3.42946e-05
-3.58127e-05
-3.73427e-05
-3.88813e-05
-4.0427e-05
-4.19793e-05
-4.3537e-05
-4.51005e-05
-4.66701e-05
-4.82444e-05
-4.98205e-05
-5.13977e-05
-5.29763e-05
-5.45549e-05
-5.61327e-05
-5.77108e-05
-5.92894e-05
-6.08672e-05
-6.24437e-05
-6.40194e-05
-6.5593e-05
-6.71627e-05
-6.8728e-05
-7.02891e-05
-7.18457e-05
-7.33975e-05
-7.49457e-05
-7.64912e-05
-7.80336e-05
-7.9572e-05
-8.11072e-05
-8.26402e-05
-8.4171e-05
-8.56989e-05
-8.72243e-05
-8.87494e-05
-9.0275e-05
-9.18009e-05
-9.33269e-05
-9.48537e-05
-9.63823e-05
-9.79119e-05
-9.94422e-05
-0.000100973
-0.000102507
-0.000104043
-0.000105583
-0.000107126
-0.000108675
-0.000110228
-0.000111784
-0.000113343
-0.000114906
-0.000116472
-0.000118043
-0.000119617
-0.000121196
-0.00012278
-0.000124371
-0.000125968
-0.000127569
-0.000129176
-0.000130787
-0.000132402
-0.000134018
-0.000135636
-0.000137256
-0.000138877
-0.000140499
-0.000142122
-0.000143743
-0.000145361
-0.000146977
-0.000148587
-0.000150191
-0.000151785
-0.00015337
-0.000154945
-0.000156508
-0.00015806
-0.000159597
-0.000161119
-0.000162626
-0.000164115
-0.000165586
-0.000167035
-0.000168459
-0.000169858
-0.000171227
-0.000172565
-0.000173869
-0.000175137
-0.000176368
-0.00017756
-0.00017871
-0.000179816
-0.000180878
-0.000181896
-0.000182866
-0.000183784
-0.000184648
-0.000185456
-0.000186205
-0.000186895
-0.000187524
-0.000188087
-0.000188584
-0.000189017
-0.000189387
-0.000189691
-0.000189931
-0.000190106
-0.000190218
-0.000190269
-0.000190265
-0.000190208
-0.000190101
-0.000189951
-0.000189762
-0.000189517
-0.000189195
-2.94405e-06
-2.66533e-06
-2.50212e-06
-2.42522e-06
-2.40279e-06
-2.43261e-06
-2.51543e-06
-2.65352e-06
-2.85081e-06
-3.10629e-06
-3.42313e-06
-3.79918e-06
-4.2342e-06
-4.73388e-06
-5.29493e-06
-5.9171e-06
-6.59788e-06
-7.33272e-06
-8.12291e-06
-8.96787e-06
-9.86431e-06
-1.08113e-05
-1.18053e-05
-1.28416e-05
-1.39205e-05
-1.50411e-05
-1.61999e-05
-1.73965e-05
-1.86284e-05
-1.98928e-05
-2.11905e-05
-2.25194e-05
-2.38748e-05
-2.52549e-05
-2.66574e-05
-2.80801e-05
-2.95234e-05
-3.09862e-05
-3.24659e-05
-3.39608e-05
-3.54696e-05
-3.69899e-05
-3.85204e-05
-4.00607e-05
-4.16088e-05
-4.3163e-05
-4.4724e-05
-4.62917e-05
-4.78646e-05
-4.94412e-05
-5.1021e-05
-5.26022e-05
-5.41836e-05
-5.5766e-05
-5.73504e-05
-5.89356e-05
-6.05209e-05
-6.21065e-05
-6.36918e-05
-6.52748e-05
-6.68546e-05
-6.84318e-05
-7.00059e-05
-7.15759e-05
-7.3142e-05
-7.47056e-05
-7.62669e-05
-7.78252e-05
-7.93806e-05
-8.09339e-05
-8.24858e-05
-8.40355e-05
-8.55826e-05
-8.71281e-05
-8.86734e-05
-9.02191e-05
-9.17652e-05
-9.33119e-05
-9.48595e-05
-9.64077e-05
-9.79562e-05
-9.95054e-05
-0.000101056
-0.000102609
-0.000104165
-0.000105723
-0.000107285
-0.000108852
-0.000110422
-0.000111996
-0.000113572
-0.000115151
-0.000116734
-0.00011832
-0.000119908
-0.0001215
-0.000123098
-0.000124701
-0.000126309
-0.00012792
-0.000129535
-0.000131153
-0.000132774
-0.000134395
-0.000136017
-0.000137638
-0.000139261
-0.000140885
-0.000142506
-0.000144126
-0.000145744
-0.000147357
-0.000148964
-0.000150562
-0.00015215
-0.000153728
-0.000155296
-0.000156851
-0.000158392
-0.000159918
-0.000161429
-0.000162924
-0.0001644
-0.000165855
-0.000167288
-0.000168697
-0.00017008
-0.000171433
-0.000172753
-0.000174039
-0.000175291
-0.000176505
-0.000177681
-0.000178814
-0.000179904
-0.00018095
-0.000181953
-0.000182908
-0.000183812
-0.000184661
-0.000185456
-0.000186194
-0.000186873
-0.000187492
-0.000188048
-0.00018854
-0.00018897
-0.000189338
-0.000189643
-0.000189883
-0.00019006
-0.000190175
-0.00019023
-0.000190227
-0.000190168
-0.000190056
-0.000189896
-0.000189691
-0.000189414
-0.000189039
-3.22588e-06
-2.87303e-06
-2.657e-06
-2.53905e-06
-2.48431e-06
-2.49057e-06
-2.55732e-06
-2.68424e-06
-2.86864e-06
-3.11461e-06
-3.42279e-06
-3.79126e-06
-4.22249e-06
-4.7142e-06
-5.26724e-06
-5.88138e-06
-6.551e-06
-7.27635e-06
-8.05663e-06
-8.88902e-06
-9.77381e-06
-1.07082e-05
-1.16866e-05
-1.27089e-05
-1.37737e-05
-1.48781e-05
-1.60221e-05
-1.72036e-05
-1.84193e-05
-1.96696e-05
-2.0953e-05
-2.22661e-05
-2.36073e-05
-2.49739e-05
-2.63629e-05
-2.77736e-05
-2.92052e-05
-3.06564e-05
-3.21262e-05
-3.3613e-05
-3.51139e-05
-3.66267e-05
-3.8151e-05
-3.96858e-05
-4.12297e-05
-4.27822e-05
-4.43427e-05
-4.59098e-05
-4.74823e-05
-4.90602e-05
-5.06423e-05
-5.22263e-05
-5.38119e-05
-5.54002e-05
-5.69906e-05
-5.85822e-05
-6.01755e-05
-6.17703e-05
-6.33648e-05
-6.49574e-05
-6.65482e-05
-6.81371e-05
-6.97232e-05
-7.13063e-05
-7.28873e-05
-7.44665e-05
-7.60432e-05
-7.76174e-05
-7.91899e-05
-8.07614e-05
-8.23312e-05
-8.38991e-05
-8.54655e-05
-8.70312e-05
-8.85966e-05
-9.01618e-05
-9.17274e-05
-9.32943e-05
-9.48621e-05
-9.64301e-05
-9.79979e-05
-9.95662e-05
-0.000101136
-0.000102709
-0.000104283
-0.00010586
-0.000107441
-0.000109026
-0.000110613
-0.000112203
-0.000113796
-0.000115392
-0.000116991
-0.000118592
-0.000120195
-0.000121801
-0.000123412
-0.000125028
-0.000126647
-0.000128268
-0.000129892
-0.000131517
-0.000133144
-0.000134771
-0.000136397
-0.000138023
-0.000139648
-0.000141273
-0.000142895
-0.000144514
-0.000146131
-0.000147743
-0.000149347
-0.00015094
-0.000152523
-0.000154097
-0.000155659
-0.000157208
-0.000158741
-0.000160257
-0.000161758
-0.000163243
-0.000164707
-0.00016615
-0.000167569
-0.000168963
-0.000170331
-0.000171668
-0.000172974
-0.000174246
-0.000175483
-0.000176683
-0.000177844
-0.000178964
-0.000180041
-0.000181075
-0.000182064
-0.000183006
-0.000183896
-0.000184734
-0.000185516
-0.000186244
-0.000186914
-0.000187525
-0.000188074
-0.000188562
-0.00018899
-0.000189357
-0.000189661
-0.000189901
-0.000190079
-0.000190195
-0.00019025
-0.000190247
-0.000190185
-0.000190067
-0.000189896
-0.000189675
-0.00018937
-0.000188948
-3.3914e-06
-2.98454e-06
-2.72705e-06
-2.57675e-06
-2.49607e-06
-2.47973e-06
-2.53162e-06
-2.64597e-06
-2.82206e-06
-3.05953e-06
-3.35772e-06
-3.72187e-06
-4.14778e-06
-4.63419e-06
-5.18168e-06
-5.7853e-06
-6.44655e-06
-7.16391e-06
-7.93474e-06
-8.75847e-06
-9.63335e-06
-1.05544e-05
-1.15208e-05
-1.25316e-05
-1.35831e-05
-1.46752e-05
-1.58062e-05
-1.6973e-05
-1.81764e-05
-1.94149e-05
-2.06852e-05
-2.19856e-05
-2.33139e-05
-2.46676e-05
-2.60454e-05
-2.74461e-05
-2.8868e-05
-3.03098e-05
-3.17711e-05
-3.32499e-05
-3.47439e-05
-3.62518e-05
-3.77717e-05
-3.93022e-05
-4.08431e-05
-4.23945e-05
-4.39549e-05
-4.55224e-05
-4.70966e-05
-4.86767e-05
-5.0261e-05
-5.18483e-05
-5.34393e-05
-5.50337e-05
-5.66303e-05
-5.82292e-05
-5.9831e-05
-6.14343e-05
-6.30375e-05
-6.46403e-05
-6.62426e-05
-6.7843e-05
-6.9441e-05
-7.10376e-05
-7.26333e-05
-7.42274e-05
-7.58193e-05
-7.74097e-05
-7.89995e-05
-8.05887e-05
-8.21761e-05
-8.3762e-05
-8.53474e-05
-8.69328e-05
-8.85178e-05
-9.01026e-05
-9.16878e-05
-9.32744e-05
-9.48616e-05
-9.64488e-05
-9.80362e-05
-9.96242e-05
-0.000101214
-0.000102805
-0.000104398
-0.000105994
-0.000107593
-0.000109196
-0.0001108
-0.000112407
-0.000114017
-0.00011563
-0.000117244
-0.00011886
-0.000120478
-0.000122099
-0.000123724
-0.000125351
-0.000126981
-0.000128613
-0.000130247
-0.000131881
-0.000133514
-0.000135147
-0.000136778
-0.000138409
-0.000140038
-0.000141665
-0.000143288
-0.000144909
-0.000146525
-0.000148136
-0.000149737
-0.000151328
-0.000152909
-0.000154479
-0.000156036
-0.000157579
-0.000159106
-0.000160617
-0.00016211
-0.000163585
-0.000165038
-0.000166469
-0.000167877
-0.000169259
-0.000170613
-0.000171937
-0.000173229
-0.000174489
-0.000175715
-0.000176904
-0.000178052
-0.00017916
-0.000180227
-0.000181251
-0.00018223
-0.00018316
-0.000184037
-0.000184863
-0.000185636
-0.000186354
-0.000187016
-0.00018762
-0.000188165
-0.000188651
-0.000189077
-0.000189443
-0.000189745
-0.000189985
-0.000190162
-0.000190278
-0.000190333
-0.000190329
-0.000190264
-0.000190139
-0.000189958
-0.000189722
-0.000189391
-0.000188932
-3.44274e-06
-2.99772e-06
-2.70955e-06
-2.53506e-06
-2.4332e-06
-2.40014e-06
-2.43514e-06
-2.53932e-06
-2.70828e-06
-2.9377e-06
-3.23238e-06
-3.59052e-06
-4.01107e-06
-4.49443e-06
-5.03419e-06
-5.63128e-06
-6.286e-06
-6.9953e-06
-7.75926e-06
-8.57604e-06
-9.44048e-06
-1.03517e-05
-1.13086e-05
-1.23081e-05
-1.33496e-05
-1.44314e-05
-1.55502e-05
-1.67063e-05
-1.78992e-05
-1.91266e-05
-2.03865e-05
-2.16764e-05
-2.29936e-05
-2.43367e-05
-2.57048e-05
-2.70965e-05
-2.85104e-05
-2.99453e-05
-3.13997e-05
-3.28716e-05
-3.43601e-05
-3.58638e-05
-3.73806e-05
-3.8909e-05
-4.0449e-05
-4.19999e-05
-4.35602e-05
-4.51292e-05
-4.67062e-05
-4.8289e-05
-4.98762e-05
-5.14682e-05
-5.3065e-05
-5.46653e-05
-5.62687e-05
-5.7876e-05
-5.94864e-05
-6.1098e-05
-6.27103e-05
-6.43236e-05
-6.59368e-05
-6.75486e-05
-6.91593e-05
-7.07697e-05
-7.23796e-05
-7.39882e-05
-7.55953e-05
-7.72021e-05
-7.88088e-05
-8.0415e-05
-8.202e-05
-8.36243e-05
-8.52284e-05
-8.68325e-05
-8.84365e-05
-9.0041e-05
-9.16462e-05
-9.32522e-05
-9.48584e-05
-9.64646e-05
-9.80714e-05
-9.96791e-05
-0.000101288
-0.000102897
-0.000104509
-0.000106124
-0.000107742
-0.000109362
-0.000110984
-0.000112608
-0.000114235
-0.000115864
-0.000117494
-0.000119125
-0.000120758
-0.000122394
-0.000124033
-0.000125672
-0.000127314
-0.000128957
-0.000130601
-0.000132244
-0.000133885
-0.000135525
-0.000137163
-0.000138799
-0.000140431
-0.000142061
-0.000143687
-0.00014531
-0.000146928
-0.000148538
-0.000150138
-0.000151728
-0.000153308
-0.000154876
-0.000156429
-0.000157968
-0.00015949
-0.000160996
-0.000162483
-0.000163949
-0.000165393
-0.000166815
-0.000168213
-0.000169584
-0.000170928
-0.00017224
-0.000173522
-0.000174772
-0.000175988
-0.000177167
-0.000178305
-0.000179404
-0.000180462
-0.000181478
-0.000182447
-0.000183366
-0.000184233
-0.000185049
-0.000185813
-0.000186524
-0.000187179
-0.000187779
-0.000188321
-0.000188805
-0.00018923
-0.000189594
-0.000189895
-0.000190134
-0.000190312
-0.000190428
-0.000190483
-0.000190476
-0.000190408
-0.000190277
-0.000190086
-0.000189835
-0.000189483
-0.000188993
-3.3842e-06
-2.91597e-06
-2.60433e-06
-2.41009e-06
-2.2939e-06
-2.24711e-06
-2.27097e-06
-2.36472e-06
-2.52495e-06
-2.75267e-06
-3.04357e-06
-3.39735e-06
-3.81515e-06
-4.29153e-06
-4.82661e-06
-5.41977e-06
-6.06816e-06
-6.77244e-06
-7.5314e-06
-8.34002e-06
-9.19684e-06
-1.01008e-05
-1.10487e-05
-1.20401e-05
-1.30732e-05
-1.4145e-05
-1.52552e-05
-1.64032e-05
-1.75871e-05
-1.88053e-05
-2.00561e-05
-2.13368e-05
-2.26454e-05
-2.39805e-05
-2.53407e-05
-2.67249e-05
-2.81324e-05
-2.95617e-05
-3.10107e-05
-3.24781e-05
-3.39626e-05
-3.54628e-05
-3.69772e-05
-3.85051e-05
-4.00456e-05
-4.15969e-05
-4.31584e-05
-4.47299e-05
-4.63097e-05
-4.78955e-05
-4.94872e-05
-5.1085e-05
-5.26877e-05
-5.42943e-05
-5.59056e-05
-5.75215e-05
-5.91402e-05
-6.07608e-05
-6.23832e-05
-6.40068e-05
-6.56305e-05
-6.72539e-05
-6.88778e-05
-7.0502e-05
-7.21257e-05
-7.37485e-05
-7.53713e-05
-7.69944e-05
-7.86175e-05
-8.02402e-05
-8.18628e-05
-8.34857e-05
-8.51085e-05
-8.6731e-05
-8.83537e-05
-8.99776e-05
-9.16025e-05
-9.32278e-05
-9.4853e-05
-9.64785e-05
-9.81045e-05
-9.97313e-05
-0.000101359
-0.000102988
-0.000104619
-0.000106252
-0.000107888
-0.000109525
-0.000111164
-0.000112806
-0.000114451
-0.000116096
-0.000117742
-0.000119388
-0.000121037
-0.000122687
-0.000124339
-0.000125992
-0.000127646
-0.0001293
-0.000130954
-0.000132607
-0.000134256
-0.000135904
-0.000137549
-0.000139191
-0.000140829
-0.000142462
-0.000144093
-0.00014572
-0.00014734
-0.00014895
-0.000150551
-0.000152141
-0.000153721
-0.000155288
-0.000156838
-0.000158373
-0.000159892
-0.000161393
-0.000162875
-0.000164334
-0.000165772
-0.000167186
-0.000168576
-0.000169939
-0.000171274
-0.000172578
-0.000173852
-0.000175094
-0.000176302
-0.000177471
-0.000178602
-0.000179694
-0.000180744
-0.000181752
-0.000182712
-0.000183622
-0.000184481
-0.000185289
-0.000186047
-0.000186752
-0.000187403
-0.000187999
-0.00018854
-0.000189023
-0.000189446
-0.000189809
-0.000190109
-0.000190348
-0.000190528
-0.000190645
-0.0001907
-0.000190691
-0.000190619
-0.000190482
-0.000190282
-0.000190019
-0.00018965
-0.000189138
-3.21953e-06
-2.73681e-06
-2.41097e-06
-2.2032e-06
-2.07373e-06
-2.01871e-06
-2.03559e-06
-2.12134e-06
-2.27807e-06
-2.50207e-06
-2.79053e-06
-3.14371e-06
-3.55583e-06
-4.02816e-06
-4.56036e-06
-5.14884e-06
-5.79463e-06
-6.4959e-06
-7.24876e-06
-8.0517e-06
-8.90313e-06
-9.80038e-06
-1.07424e-05
-1.17274e-05
-1.27527e-05
-1.38173e-05
-1.49212e-05
-1.60627e-05
-1.72399e-05
-1.8451e-05
-1.96941e-05
-2.09672e-05
-2.2269e-05
-2.3598e-05
-2.49524e-05
-2.63313e-05
-2.77338e-05
-2.91584e-05
-3.06035e-05
-3.20682e-05
-3.35504e-05
-3.50483e-05
-3.65618e-05
-3.80901e-05
-3.96313e-05
-4.11843e-05
-4.27486e-05
-4.43231e-05
-4.59057e-05
-4.74956e-05
-4.9093e-05
-5.06968e-05
-5.23056e-05
-5.392e-05
-5.55401e-05
-5.71644e-05
-5.87917e-05
-6.04221e-05
-6.20551e-05
-6.3689e-05
-6.53233e-05
-6.69589e-05
-6.85961e-05
-7.02337e-05
-7.1871e-05
-7.35086e-05
-7.51471e-05
-7.67863e-05
-7.84255e-05
-8.00649e-05
-8.1705e-05
-8.33461e-05
-8.49873e-05
-8.66286e-05
-8.82705e-05
-8.99136e-05
-9.15576e-05
-9.32019e-05
-9.48462e-05
-9.64911e-05
-9.81364e-05
-9.97819e-05
-0.000101428
-0.000103076
-0.000104726
-0.000106378
-0.000108031
-0.000109686
-0.000111344
-0.000113003
-0.000114664
-0.000116326
-0.000117988
-0.000119651
-0.000121315
-0.00012298
-0.000124645
-0.000126311
-0.000127978
-0.000129644
-0.000131308
-0.00013297
-0.000134629
-0.000136286
-0.000137938
-0.000139586
-0.00014123
-0.00014287
-0.000144506
-0.000146137
-0.00014776
-0.000149373
-0.000150976
-0.000152568
-0.000154148
-0.000155713
-0.000157263
-0.000158796
-0.000160312
-0.000161809
-0.000163285
-0.00016474
-0.000166173
-0.000167582
-0.000168967
-0.000170324
-0.000171651
-0.00017295
-0.000174219
-0.000175454
-0.000176654
-0.000177817
-0.000178941
-0.000180026
-0.000181071
-0.000182071
-0.000183023
-0.000183926
-0.000184779
-0.000185583
-0.000186336
-0.000187037
-0.000187685
-0.00018828
-0.00018882
-0.000189302
-0.000189725
-0.000190087
-0.000190387
-0.000190628
-0.00019081
-0.000190929
-0.000190984
-0.000190974
-0.000190898
-0.000190756
-0.000190549
-0.000190277
-0.000189895
-0.000189368
-2.94813e-06
-2.46109e-06
-2.12932e-06
-1.91218e-06
-1.7753e-06
-1.71389e-06
-1.72603e-06
-1.81136e-06
-1.96497e-06
-2.1861e-06
-2.47465e-06
-2.82402e-06
-3.23419e-06
-3.7053e-06
-4.23393e-06
-4.82138e-06
-5.46574e-06
-6.1634e-06
-6.91279e-06
-7.71206e-06
-8.55882e-06
-9.45189e-06
-1.03895e-05
-1.13691e-05
-1.23891e-05
-1.34492e-05
-1.45483e-05
-1.56848e-05
-1.68569e-05
-1.80628e-05
-1.93001e-05
-2.05677e-05
-2.18644e-05
-2.31887e-05
-2.45394e-05
-2.59151e-05
-2.73143e-05
-2.87357e-05
-3.01784e-05
-3.16412e-05
-3.3122e-05
-3.46197e-05
-3.61339e-05
-3.76629e-05
-3.92055e-05
-4.07613e-05
-4.23291e-05
-4.39067e-05
-4.54931e-05
-4.70885e-05
-4.8692e-05
-5.03019e-05
-5.19182e-05
-5.35415e-05
-5.51704e-05
-5.68034e-05
-5.84404e-05
-6.00813e-05
-6.17245e-05
-6.33689e-05
-6.5015e-05
-6.66633e-05
-6.83134e-05
-6.99642e-05
-7.16156e-05
-7.32683e-05
-7.49223e-05
-7.65771e-05
-7.82326e-05
-7.98892e-05
-8.15471e-05
-8.3206e-05
-8.48655e-05
-8.65257e-05
-8.81872e-05
-8.98495e-05
-9.15124e-05
-9.31755e-05
-9.4839e-05
-9.65031e-05
-9.81673e-05
-9.98316e-05
-0.000101497
-0.000103164
-0.000104833
-0.000106503
-0.000108174
-0.000109847
-0.000111522
-0.0001132
-0.000114878
-0.000116555
-0.000118234
-0.000119913
-0.000121593
-0.000123273
-0.000124952
-0.000126631
-0.000128311
-0.000129989
-0.000131664
-0.000133335
-0.000135004
-0.00013667
-0.00013833
-0.000139985
-0.000141636
-0.000143283
-0.000144926
-0.000146562
-0.000148189
-0.000149807
-0.000151414
-0.000153008
-0.000154589
-0.000156153
-0.000157702
-0.000159233
-0.000160747
-0.000162241
-0.000163715
-0.000165167
-0.000166597
-0.000168003
-0.000169384
-0.000170737
-0.000172061
-0.000173356
-0.00017462
-0.000175851
-0.000177045
-0.000178201
-0.00017932
-0.000180401
-0.000181439
-0.000182433
-0.00018338
-0.000184278
-0.000185128
-0.000185929
-0.00018668
-0.000187379
-0.000188026
-0.00018862
-0.000189159
-0.000189641
-0.000190063
-0.000190427
-0.00019073
-0.000190974
-0.000191158
-0.000191279
-0.000191334
-0.000191323
-0.000191245
-0.0001911
-0.000190889
-0.000190611
-0.000190223
-0.000189688
-2.57731e-06
-2.0909e-06
-1.75666e-06
-1.54022e-06
-1.39913e-06
-1.33323e-06
-1.34658e-06
-1.43119e-06
-1.58485e-06
-1.80685e-06
-2.09197e-06
-2.44042e-06
-2.85121e-06
-3.32036e-06
-3.84992e-06
-4.43736e-06
-5.0801e-06
-5.77617e-06
-6.52362e-06
-7.32062e-06
-8.16504e-06
-9.05562e-06
-9.98977e-06
-1.09658e-05
-1.19832e-05
-1.30409e-05
-1.41369e-05
-1.527e-05
-1.64384e-05
-1.76402e-05
-1.88739e-05
-2.01382e-05
-2.14317e-05
-2.2753e-05
-2.41015e-05
-2.54753e-05
-2.68728e-05
-2.82931e-05
-2.97348e-05
-3.11964e-05
-3.2677e-05
-3.4176e-05
-3.56917e-05
-3.72224e-05
-3.87678e-05
-4.0327e-05
-4.18982e-05
-4.34797e-05
-4.50714e-05
-4.6673e-05
-4.82826e-05
-4.98997e-05
-5.15249e-05
-5.31573e-05
-5.47952e-05
-5.64381e-05
-5.80859e-05
-5.97372e-05
-6.13906e-05
-6.30463e-05
-6.47049e-05
-6.63661e-05
-6.80289e-05
-6.96932e-05
-7.13594e-05
-7.30273e-05
-7.46965e-05
-7.63669e-05
-7.8039e-05
-7.97131e-05
-8.13888e-05
-8.30656e-05
-8.47436e-05
-8.64231e-05
-8.81039e-05
-8.97854e-05
-9.14671e-05
-9.31493e-05
-9.48321e-05
-9.6515e-05
-9.81979e-05
-9.98811e-05
-0.000101566
-0.000103252
-0.000104939
-0.000106627
-0.000108317
-0.000110008
-0.000111701
-0.000113396
-0.000115091
-0.000116785
-0.000118481
-0.000120177
-0.000121872
-0.000123567
-0.00012526
-0.000126953
-0.000128646
-0.000130335
-0.000132021
-0.000133704
-0.000135383
-0.000137057
-0.000138726
-0.000140389
-0.000142049
-0.000143704
-0.000145355
-0.000146997
-0.000148629
-0.000150251
-0.000151863
-0.00015346
-0.000155042
-0.000156607
-0.000158155
-0.000159687
-0.0001612
-0.000162693
-0.000164165
-0.000165616
-0.000167046
-0.000168451
-0.000169829
-0.00017118
-0.000172502
-0.000173795
-0.000175056
-0.000176282
-0.000177472
-0.000178624
-0.000179739
-0.000180815
-0.00018185
-0.000182839
-0.000183783
-0.00018468
-0.000185529
-0.000186329
-0.000187078
-0.000187776
-0.000188423
-0.000189017
-0.000189557
-0.000190039
-0.000190463
-0.000190829
-0.000191137
-0.000191385
-0.000191572
-0.000191694
-0.00019175
-0.000191739
-0.000191662
-0.000191517
-0.000191305
-0.000191025
-0.000190635
-0.000190097
-2.11293e-06
-1.62861e-06
-1.29904e-06
-1.08445e-06
-9.45216e-07
-8.82547e-07
-8.95173e-07
-9.81332e-07
-1.13804e-06
-1.35892e-06
-1.6445e-06
-1.99435e-06
-2.40487e-06
-2.87677e-06
-3.40808e-06
-3.99595e-06
-4.63877e-06
-5.33465e-06
-6.08173e-06
-6.87811e-06
-7.72205e-06
-8.61125e-06
-9.54353e-06
-1.05184e-05
-1.15352e-05
-1.25919e-05
-1.36867e-05
-1.48181e-05
-1.59842e-05
-1.71836e-05
-1.84154e-05
-1.96781e-05
-2.09702e-05
-2.22909e-05