/*--------------------------------*- C++ -*----------------------------------*\
  =========                 |
  \\      /  F ield         | OpenFOAM: The Open Source CFD Toolbox
   \\    /   O peration     | Website:  https://openfoam.org
    \\  /    A nd           | Version:  7
     \\/     M anipulation  |
\*---------------------------------------------------------------------------*/
FoamFile
{
    version     2.0;
    format      ascii;
    class       volVectorField;
    location    "0.35";
    object      U;
}
// * * * * * * * * * * * * * * * * * * * * * * * * * * * * * * * * * * * * * //

dimensions      [0 1 -1 0 0 0 0];

internalField   nonuniform List<vector> 
51200
(
(-1.04034e-08 8.97264e-09 0)
(-9.18612e-09 -1.95133e-08 0)
(4.25799e-08 -4.23757e-08 0)
(1.24998e-07 -4.18139e-08 0)
(2.19866e-07 -3.777e-08 0)
(3.20513e-07 -3.60374e-08 0)
(4.29958e-07 -3.67489e-08 0)
(5.492e-07 -3.81075e-08 0)
(6.77035e-07 -4.02602e-08 0)
(8.11255e-07 -4.18396e-08 0)
(9.50222e-07 -4.31194e-08 0)
(1.09139e-06 -4.37662e-08 0)
(1.23297e-06 -4.3336e-08 0)
(1.37274e-06 -4.25417e-08 0)
(1.50935e-06 -4.12237e-08 0)
(1.64136e-06 -3.99108e-08 0)
(1.76746e-06 -3.83401e-08 0)
(1.88698e-06 -3.61225e-08 0)
(1.9985e-06 -3.36623e-08 0)
(2.10166e-06 -3.09096e-08 0)
(2.19588e-06 -2.81425e-08 0)
(2.28035e-06 -2.56119e-08 0)
(2.35517e-06 -2.27397e-08 0)
(2.41982e-06 -1.96962e-08 0)
(2.47389e-06 -1.66818e-08 0)
(2.51785e-06 -1.33764e-08 0)
(2.55131e-06 -1.02272e-08 0)
(2.57413e-06 -7.34094e-09 0)
(2.58686e-06 -4.22101e-09 0)
(2.58926e-06 -1.21127e-09 0)
(2.58143e-06 1.55664e-09 0)
(2.56416e-06 4.44238e-09 0)
(2.53733e-06 7.11691e-09 0)
(2.50114e-06 9.52356e-09 0)
(2.45643e-06 1.21115e-08 0)
(2.40326e-06 1.4594e-08 0)
(2.34183e-06 1.6651e-08 0)
(2.27307e-06 1.86352e-08 0)
(2.19736e-06 2.05827e-08 0)
(2.11489e-06 2.23007e-08 0)
(2.02647e-06 2.41073e-08 0)
(1.93264e-06 2.59944e-08 0)
(1.83347e-06 2.74794e-08 0)
(1.72967e-06 2.86381e-08 0)
(1.62209e-06 2.97886e-08 0)
(1.51078e-06 3.08142e-08 0)
(1.3962e-06 3.16562e-08 0)
(1.27924e-06 3.24938e-08 0)
(1.16028e-06 3.31087e-08 0)
(1.03961e-06 3.32216e-08 0)
(9.18043e-07 3.31576e-08 0)
(7.961e-07 3.32488e-08 0)
(6.7394e-07 3.33856e-08 0)
(5.52172e-07 3.34014e-08 0)
(4.31548e-07 3.32292e-08 0)
(3.12382e-07 3.28184e-08 0)
(1.94984e-07 3.219e-08 0)
(7.99319e-08 3.14425e-08 0)
(-3.23316e-08 3.06536e-08 0)
(-1.41539e-07 2.97927e-08 0)
(-2.47307e-07 2.87633e-08 0)
(-3.49171e-07 2.75641e-08 0)
(-4.46788e-07 2.63049e-08 0)
(-5.39896e-07 2.50373e-08 0)
(-6.2817e-07 2.3707e-08 0)
(-7.11264e-07 2.22874e-08 0)
(-7.88899e-07 2.0805e-08 0)
(-8.60825e-07 1.92289e-08 0)
(-9.26765e-07 1.74834e-08 0)
(-9.86487e-07 1.56073e-08 0)
(-1.03983e-06 1.37465e-08 0)
(-1.08665e-06 1.19584e-08 0)
(-1.12684e-06 1.01625e-08 0)
(-1.16027e-06 8.3038e-09 0)
(-1.18682e-06 6.42495e-09 0)
(-1.20639e-06 4.52061e-09 0)
(-1.21891e-06 2.51529e-09 0)
(-1.2243e-06 4.37976e-10 0)
(-1.2225e-06 -1.57935e-09 0)
(-1.21352e-06 -3.48188e-09 0)
(-1.19745e-06 -5.37297e-09 0)
(-1.17434e-06 -7.35995e-09 0)
(-1.1442e-06 -9.39129e-09 0)
(-1.10709e-06 -1.13515e-08 0)
(-1.06314e-06 -1.32069e-08 0)
(-1.01255e-06 -1.49905e-08 0)
(-9.5545e-07 -1.67236e-08 0)
(-8.91956e-07 -1.84023e-08 0)
(-8.22262e-07 -2.00758e-08 0)
(-7.46623e-07 -2.17896e-08 0)
(-6.65297e-07 -2.34446e-08 0)
(-5.78484e-07 -2.49065e-08 0)
(-4.86428e-07 -2.61814e-08 0)
(-3.89469e-07 -2.738e-08 0)
(-2.87955e-07 -2.85679e-08 0)
(-1.82197e-07 -2.97077e-08 0)
(-7.2472e-08 -3.0763e-08 0)
(4.08934e-08 -3.17583e-08 0)
(1.57493e-07 -3.2666e-08 0)
(2.76885e-07 -3.33566e-08 0)
(3.98624e-07 -3.37749e-08 0)
(5.22313e-07 -3.408e-08 0)
(6.47556e-07 -3.44607e-08 0)
(7.73905e-07 -3.48515e-08 0)
(9.00958e-07 -3.50139e-08 0)
(1.0283e-06 -3.48437e-08 0)
(1.15539e-06 -3.44834e-08 0)
(1.28175e-06 -3.41398e-08 0)
(1.4069e-06 -3.38005e-08 0)
(1.53036e-06 -3.3284e-08 0)
(1.6517e-06 -3.25406e-08 0)
(1.77042e-06 -3.16481e-08 0)
(1.88595e-06 -3.06288e-08 0)
(1.99784e-06 -2.94677e-08 0)
(2.10565e-06 -2.81599e-08 0)
(2.2089e-06 -2.67248e-08 0)
(2.30714e-06 -2.52232e-08 0)
(2.3999e-06 -2.36142e-08 0)
(2.4866e-06 -2.17534e-08 0)
(2.5668e-06 -1.96765e-08 0)
(2.64013e-06 -1.75759e-08 0)
(2.70608e-06 -1.5484e-08 0)
(2.76424e-06 -1.32626e-08 0)
(2.81424e-06 -1.08075e-08 0)
(2.85569e-06 -8.13153e-09 0)
(2.88821e-06 -5.379e-09 0)
(2.91155e-06 -2.68621e-09 0)
(2.92534e-06 1.97206e-11 0)
(2.92928e-06 2.89501e-09 0)
(2.9232e-06 5.94059e-09 0)
(2.90687e-06 9.03681e-09 0)
(2.88014e-06 1.20918e-08 0)
(2.84294e-06 1.50892e-08 0)
(2.79521e-06 1.80996e-08 0)
(2.73696e-06 2.12072e-08 0)
(2.66824e-06 2.43705e-08 0)
(2.58916e-06 2.74537e-08 0)
(2.4999e-06 3.0391e-08 0)
(2.4008e-06 3.32201e-08 0)
(2.29218e-06 3.59923e-08 0)
(2.17441e-06 3.86907e-08 0)
(2.04809e-06 4.11966e-08 0)
(1.91401e-06 4.3387e-08 0)
(1.773e-06 4.52825e-08 0)
(1.62596e-06 4.69587e-08 0)
(1.47403e-06 4.83637e-08 0)
(1.31844e-06 4.93526e-08 0)
(1.16062e-06 4.98176e-08 0)
(1.00233e-06 4.96906e-08 0)
(8.4561e-07 4.88778e-08 0)
(6.9265e-07 4.72944e-08 0)
(5.45967e-07 4.48589e-08 0)
(4.08509e-07 4.14134e-08 0)
(2.83528e-07 3.67289e-08 0)
(1.74645e-07 3.05554e-08 0)
(8.58775e-08 2.27268e-08 0)
(2.12394e-08 1.3319e-08 0)
(-1.56963e-08 2.84378e-09 0)
(-2.40692e-08 -7.13664e-09 0)
(-1.06519e-08 -1.01892e-08 0)
(-3.14549e-08 3.06509e-08 0)
(-2.26526e-08 -3.84044e-08 0)
(6.78764e-08 -1.26863e-07 0)
(2.37289e-07 -1.64759e-07 0)
(4.64482e-07 -1.86328e-07 0)
(7.31256e-07 -2.06852e-07 0)
(1.03345e-06 -2.26755e-07 0)
(1.36549e-06 -2.44941e-07 0)
(1.72056e-06 -2.59458e-07 0)
(2.09267e-06 -2.70211e-07 0)
(2.47509e-06 -2.76649e-07 0)
(2.86282e-06 -2.78946e-07 0)
(3.24951e-06 -2.77528e-07 0)
(3.63091e-06 -2.72336e-07 0)
(4.0025e-06 -2.64309e-07 0)
(4.36034e-06 -2.54043e-07 0)
(4.70171e-06 -2.41534e-07 0)
(5.02308e-06 -2.27257e-07 0)
(5.32268e-06 -2.1107e-07 0)
(5.59833e-06 -1.93447e-07 0)
(5.84805e-06 -1.751e-07 0)
(6.07115e-06 -1.55925e-07 0)
(6.26604e-06 -1.36195e-07 0)
(6.43187e-06 -1.16165e-07 0)
(6.56881e-06 -9.54946e-08 0)
(6.67602e-06 -7.46358e-08 0)
(6.75346e-06 -5.39868e-08 0)
(6.80161e-06 -3.3349e-08 0)
(6.82015e-06 -1.29618e-08 0)
(6.80959e-06 6.94203e-09 0)
(6.77101e-06 2.6655e-08 0)
(6.70472e-06 4.58448e-08 0)
(6.61147e-06 6.41324e-08 0)
(6.49257e-06 8.19161e-08 0)
(6.3487e-06 9.91168e-08 0)
(6.18084e-06 1.15297e-07 0)
(5.99062e-06 1.30662e-07 0)
(5.77912e-06 1.45171e-07 0)
(5.54732e-06 1.5844e-07 0)
(5.29701e-06 1.70796e-07 0)
(5.02963e-06 1.82469e-07 0)
(4.74618e-06 1.93115e-07 0)
(4.44834e-06 2.02647e-07 0)
(4.13778e-06 2.11336e-07 0)
(3.81563e-06 2.1894e-07 0)
(3.48333e-06 2.2532e-07 0)
(3.14263e-06 2.30877e-07 0)
(2.79484e-06 2.35648e-07 0)
(2.44135e-06 2.3925e-07 0)
(2.08393e-06 2.41655e-07 0)
(1.72405e-06 2.43046e-07 0)
(1.36285e-06 2.43405e-07 0)
(1.00182e-06 2.42836e-07 0)
(6.42551e-07 2.41513e-07 0)
(2.863e-07 2.39277e-07 0)
(-6.56333e-08 2.35967e-07 0)
(-4.11819e-07 2.31713e-07 0)
(-7.51064e-07 2.26667e-07 0)
(-1.08227e-06 2.20846e-07 0)
(-1.40416e-06 2.14255e-07 0)
(-1.71557e-06 2.06914e-07 0)
(-2.01552e-06 1.98846e-07 0)
(-2.30301e-06 1.90091e-07 0)
(-2.57702e-06 1.80695e-07 0)
(-2.83665e-06 1.7068e-07 0)
(-3.0811e-06 1.60093e-07 0)
(-3.3095e-06 1.49003e-07 0)
(-3.52101e-06 1.37434e-07 0)
(-3.71499e-06 1.25342e-07 0)
(-3.89089e-06 1.1277e-07 0)
(-4.04805e-06 9.98755e-08 0)
(-4.18597e-06 8.67373e-08 0)
(-4.30434e-06 7.33409e-08 0)
(-4.40287e-06 5.97182e-08 0)
(-4.48112e-06 4.59386e-08 0)
(-4.53877e-06 3.19944e-08 0)
(-4.57569e-06 1.78326e-08 0)
(-4.59178e-06 3.52694e-09 0)
(-4.58688e-06 -1.07557e-08 0)
(-4.56092e-06 -2.49419e-08 0)
(-4.51402e-06 -3.9059e-08 0)
(-4.44639e-06 -5.3112e-08 0)
(-4.35816e-06 -6.70153e-08 0)
(-4.24947e-06 -8.06943e-08 0)
(-4.12073e-06 -9.41588e-08 0)
(-3.97242e-06 -1.07369e-07 0)
(-3.80492e-06 -1.202e-07 0)
(-3.6186e-06 -1.32583e-07 0)
(-3.41405e-06 -1.44605e-07 0)
(-3.19199e-06 -1.5633e-07 0)
(-2.95316e-06 -1.67615e-07 0)
(-2.69815e-06 -1.78268e-07 0)
(-2.4277e-06 -1.88263e-07 0)
(-2.14274e-06 -1.97691e-07 0)
(-1.84422e-06 -2.06558e-07 0)
(-1.53306e-06 -2.14741e-07 0)
(-1.21015e-06 -2.22193e-07 0)
(-8.76494e-07 -2.28993e-07 0)
(-5.33298e-07 -2.35136e-07 0)
(-1.81685e-07 -2.40443e-07 0)
(1.77288e-07 -2.44747e-07 0)
(5.42425e-07 -2.4812e-07 0)
(9.1249e-07 -2.50821e-07 0)
(1.28619e-06 -2.52861e-07 0)
(1.66221e-06 -2.53957e-07 0)
(2.03932e-06 -2.53962e-07 0)
(2.41619e-06 -2.52973e-07 0)
(2.79135e-06 -2.51124e-07 0)
(3.16345e-06 -2.48432e-07 0)
(3.53113e-06 -2.44745e-07 0)
(3.89294e-06 -2.3998e-07 0)
(4.24751e-06 -2.34268e-07 0)
(4.59339e-06 -2.27673e-07 0)
(4.92916e-06 -2.2008e-07 0)
(5.25347e-06 -2.11442e-07 0)
(5.56496e-06 -2.01838e-07 0)
(5.86215e-06 -1.91374e-07 0)
(6.14365e-06 -1.80063e-07 0)
(6.40812e-06 -1.67761e-07 0)
(6.65433e-06 -1.54395e-07 0)
(6.881e-06 -1.40159e-07 0)
(7.08687e-06 -1.25249e-07 0)
(7.27072e-06 -1.09619e-07 0)
(7.4314e-06 -9.31268e-08 0)
(7.56781e-06 -7.57404e-08 0)
(7.67904e-06 -5.76087e-08 0)
(7.76418e-06 -3.89681e-08 0)
(7.82229e-06 -1.98926e-08 0)
(7.85258e-06 -2.90163e-10 0)
(7.85446e-06 1.98357e-08 0)
(7.82735e-06 4.03294e-08 0)
(7.77083e-06 6.10221e-08 0)
(7.68474e-06 8.17829e-08 0)
(7.56896e-06 1.02546e-07 0)
(7.42342e-06 1.23306e-07 0)
(7.2484e-06 1.43968e-07 0)
(7.0444e-06 1.64293e-07 0)
(6.81197e-06 1.84079e-07 0)
(6.55188e-06 2.03214e-07 0)
(6.26528e-06 2.21545e-07 0)
(5.95354e-06 2.38847e-07 0)
(5.61821e-06 2.54886e-07 0)
(5.26137e-06 2.69396e-07 0)
(4.88544e-06 2.82108e-07 0)
(4.49303e-06 2.92815e-07 0)
(4.08726e-06 3.01246e-07 0)
(3.67184e-06 3.06964e-07 0)
(3.25092e-06 3.09464e-07 0)
(2.82906e-06 3.08298e-07 0)
(2.41151e-06 3.03009e-07 0)
(2.00432e-06 2.93032e-07 0)
(1.61408e-06 2.77764e-07 0)
(1.24796e-06 2.56596e-07 0)
(9.13839e-07 2.28891e-07 0)
(6.20206e-07 1.94018e-07 0)
(3.75702e-07 1.51701e-07 0)
(1.87976e-07 1.02772e-07 0)
(6.23808e-08 5.01461e-08 0)
(-6.2989e-10 1.14016e-09 0)
(-8.25975e-09 -2.31452e-08 0)
(-3.34796e-08 5.77343e-08 0)
(-1.1664e-08 -8.82386e-08 0)
(1.15059e-07 -2.84002e-07 0)
(3.54602e-07 -4.07038e-07 0)
(6.86418e-07 -4.9554e-07 0)
(1.0904e-06 -5.70697e-07 0)
(1.55375e-06 -6.34794e-07 0)
(2.0648e-06 -6.87592e-07 0)
(2.61161e-06 -7.27923e-07 0)
(3.18299e-06 -7.55797e-07 0)
(3.77044e-06 -7.71335e-07 0)
(4.36373e-06 -7.75896e-07 0)
(4.95539e-06 -7.69961e-07 0)
(5.53752e-06 -7.54662e-07 0)
(6.10329e-06 -7.31558e-07 0)
(6.64758e-06 -7.01043e-07 0)
(7.16478e-06 -6.64938e-07 0)
(7.65102e-06 -6.23386e-07 0)
(8.10225e-06 -5.77216e-07 0)
(8.515e-06 -5.27674e-07 0)
(8.88728e-06 -4.74798e-07 0)
(9.21654e-06 -4.19711e-07 0)
(9.50107e-06 -3.63186e-07 0)
(9.74019e-06 -3.05032e-07 0)
(9.93254e-06 -2.46176e-07 0)
(1.00778e-05 -1.87e-07 0)
(1.01761e-05 -1.27526e-07 0)
(1.02271e-05 -6.86118e-08 0)
(1.02313e-05 -1.05632e-08 0)
(1.01898e-05 4.68028e-08 0)
(1.01032e-05 1.02898e-07 0)
(9.97248e-06 1.57289e-07 0)
(9.79938e-06 2.10117e-07 0)
(9.58511e-06 2.60974e-07 0)
(9.33108e-06 3.09532e-07 0)
(9.03937e-06 3.56052e-07 0)
(8.71178e-06 4.00173e-07 0)
(8.35006e-06 4.41433e-07 0)
(7.95665e-06 4.80023e-07 0)
(7.53371e-06 5.15955e-07 0)
(7.08313e-06 5.48929e-07 0)
(6.60736e-06 5.79038e-07 0)
(6.10882e-06 6.06482e-07 0)
(5.5897e-06 6.30952e-07 0)
(5.05243e-06 6.52368e-07 0)
(4.49959e-06 6.70907e-07 0)
(3.93342e-06 6.86498e-07 0)
(3.35618e-06 6.99101e-07 0)
(2.77043e-06 7.08884e-07 0)
(2.17861e-06 7.1581e-07 0)
(1.58299e-06 7.19628e-07 0)
(9.85982e-07 7.20452e-07 0)
(3.8991e-07 7.1855e-07 0)
(-2.03153e-07 7.13902e-07 0)
(-7.9101e-07 7.06499e-07 0)
(-1.37133e-06 6.96516e-07 0)
(-1.94206e-06 6.84e-07 0)
(-2.50128e-06 6.6895e-07 0)
(-3.04698e-06 6.5156e-07 0)
(-3.57719e-06 6.31988e-07 0)
(-4.09016e-06 6.10219e-07 0)
(-4.58419e-06 5.86312e-07 0)
(-5.05751e-06 5.60455e-07 0)
(-5.50855e-06 5.32741e-07 0)
(-5.93595e-06 5.03162e-07 0)
(-6.33828e-06 4.71861e-07 0)
(-6.71411e-06 4.39072e-07 0)
(-7.06227e-06 4.04886e-07 0)
(-7.38176e-06 3.69324e-07 0)
(-7.67151e-06 3.32562e-07 0)
(-7.93048e-06 2.94822e-07 0)
(-8.15793e-06 2.5616e-07 0)
(-8.35325e-06 2.16611e-07 0)
(-8.51579e-06 1.76377e-07 0)
(-8.64493e-06 1.3566e-07 0)
(-8.74029e-06 9.44916e-08 0)
(-8.80164e-06 5.28809e-08 0)
(-8.82869e-06 1.09975e-08 0)
(-8.82124e-06 -3.09044e-08 0)
(-8.77934e-06 -7.2702e-08 0)
(-8.70319e-06 -1.1436e-07 0)
(-8.59296e-06 -1.55723e-07 0)
(-8.44884e-06 -1.96555e-07 0)
(-8.27121e-06 -2.36756e-07 0)
(-8.0607e-06 -2.76347e-07 0)
(-7.81797e-06 -3.15205e-07 0)
(-7.54358e-06 -3.53069e-07 0)
(-7.23835e-06 -3.89773e-07 0)
(-6.90329e-06 -4.25334e-07 0)
(-6.53941e-06 -4.5974e-07 0)
(-6.14773e-06 -4.92775e-07 0)
(-5.72936e-06 -5.24208e-07 0)
(-5.28562e-06 -5.5398e-07 0)
(-4.81797e-06 -5.8207e-07 0)
(-4.32779e-06 -6.0838e-07 0)
(-3.8165e-06 -6.32718e-07 0)
(-3.28578e-06 -6.54955e-07 0)
(-2.73733e-06 -6.75151e-07 0)
(-2.17287e-06 -6.93284e-07 0)
(-1.59417e-06 -7.091e-07 0)
(-1.00304e-06 -7.22418e-07 0)
(-4.01526e-07 -7.33253e-07 0)
(2.08352e-07 -7.41696e-07 0)
(8.24727e-07 -7.47776e-07 0)
(1.44552e-06 -7.51285e-07 0)
(2.06847e-06 -7.52018e-07 0)
(2.69133e-06 -7.50019e-07 0)
(3.31193e-06 -7.45327e-07 0)
(3.92811e-06 -7.37859e-07 0)
(4.53769e-06 -7.27566e-07 0)
(5.13832e-06 -7.14413e-07 0)
(5.7276e-06 -6.98419e-07 0)
(6.30331e-06 -6.79671e-07 0)
(6.86329e-06 -6.58126e-07 0)
(7.40519e-06 -6.33692e-07 0)
(7.92669e-06 -6.0647e-07 0)
(8.42556e-06 -5.76597e-07 0)
(8.89959e-06 -5.44059e-07 0)
(9.34661e-06 -5.08806e-07 0)
(9.76457e-06 -4.70857e-07 0)
(1.01514e-05 -4.30345e-07 0)
(1.0505e-05 -3.87484e-07 0)
(1.08237e-05 -3.424e-07 0)
(1.11056e-05 -2.95095e-07 0)
(1.13488e-05 -2.45608e-07 0)
(1.15518e-05 -1.94089e-07 0)
(1.17131e-05 -1.40791e-07 0)
(1.18315e-05 -8.59806e-08 0)
(1.19057e-05 -2.98241e-08 0)
(1.19347e-05 2.75475e-08 0)
(1.19177e-05 8.58973e-08 0)
(1.18539e-05 1.44922e-07 0)
(1.1743e-05 2.04333e-07 0)
(1.1585e-05 2.63803e-07 0)
(1.13799e-05 3.22985e-07 0)
(1.11281e-05 3.81585e-07 0)
(1.08302e-05 4.39227e-07 0)
(1.04872e-05 4.95389e-07 0)
(1.01008e-05 5.49572e-07 0)
(9.67244e-06 6.01324e-07 0)
(9.20449e-06 6.50083e-07 0)
(8.69959e-06 6.95186e-07 0)
(8.16092e-06 7.35953e-07 0)
(7.59219e-06 7.71665e-07 0)
(6.99773e-06 8.0154e-07 0)
(6.38251e-06 8.24715e-07 0)
(5.75211e-06 8.402e-07 0)
(5.11291e-06 8.46834e-07 0)
(4.47211e-06 8.43408e-07 0)
(3.83767e-06 8.28732e-07 0)
(3.21837e-06 8.01508e-07 0)
(2.62395e-06 7.60337e-07 0)
(2.06485e-06 7.03878e-07 0)
(1.55202e-06 6.3102e-07 0)
(1.09683e-06 5.4103e-07 0)
(7.10673e-07 4.341e-07 0)
(4.03481e-07 3.12729e-07 0)
(1.81826e-07 1.83701e-07 0)
(4.82096e-08 6.21153e-08 0)
(1.82382e-09 -1.60401e-08 0)
(-1.21215e-08 5.92493e-08 0)
(5.32977e-08 -1.83309e-07 0)
(2.42275e-07 -5.01842e-07 0)
(5.58228e-07 -7.37335e-07 0)
(9.85976e-07 -9.21123e-07 0)
(1.50495e-06 -1.07403e-06 0)
(2.10043e-06 -1.20097e-06 0)
(2.75619e-06 -1.30179e-06 0)
(3.45701e-06 -1.3779e-06 0)
(4.18953e-06 -1.42865e-06 0)
(4.94021e-06 -1.45653e-06 0)
(5.69846e-06 -1.46284e-06 0)
(6.45321e-06 -1.44976e-06 0)
(7.19459e-06 -1.4198e-06 0)
(7.91449e-06 -1.37396e-06 0)
(8.60476e-06 -1.31505e-06 0)
(9.25928e-06 -1.24424e-06 0)
(9.87237e-06 -1.16342e-06 0)
(1.04386e-05 -1.0745e-06 0)
(1.09541e-05 -9.78211e-07 0)
(1.14153e-05 -8.76127e-07 0)
(1.1819e-05 -7.69725e-07 0)
(1.21634e-05 -6.59506e-07 0)
(1.24468e-05 -5.46915e-07 0)
(1.26679e-05 -4.32903e-07 0)
(1.28264e-05 -3.17796e-07 0)
(1.29217e-05 -2.02774e-07 0)
(1.29538e-05 -8.86319e-08 0)
(1.29237e-05 2.43704e-08 0)
(1.28322e-05 1.35432e-07 0)
(1.26803e-05 2.43874e-07 0)
(1.24697e-05 3.496e-07 0)
(1.22021e-05 4.51972e-07 0)
(1.18792e-05 5.5032e-07 0)
(1.15036e-05 6.44654e-07 0)
(1.10774e-05 7.34638e-07 0)
(1.0603e-05 8.19739e-07 0)
(1.00832e-05 8.99921e-07 0)
(9.52101e-06 9.7507e-07 0)
(8.91904e-06 1.04469e-06 0)
(8.28037e-06 1.10874e-06 0)
(7.60822e-06 1.16729e-06 0)
(6.9056e-06 1.22017e-06 0)
(6.17558e-06 1.26731e-06 0)
(5.42157e-06 1.30878e-06 0)
(4.64686e-06 1.34445e-06 0)
(3.85466e-06 1.37414e-06 0)
(3.0483e-06 1.398e-06 0)
(2.23098e-06 1.41619e-06 0)
(1.40579e-06 1.42866e-06 0)
(5.75963e-07 1.43544e-06 0)
(-2.5512e-07 1.43662e-06 0)
(-1.08437e-06 1.4322e-06 0)
(-1.90886e-06 1.42227e-06 0)
(-2.72555e-06 1.40709e-06 0)
(-3.5315e-06 1.38684e-06 0)
(-4.32395e-06 1.36153e-06 0)
(-5.10007e-06 1.33134e-06 0)
(-5.85711e-06 1.29655e-06 0)
(-6.59256e-06 1.25728e-06 0)
(-7.30397e-06 1.21367e-06 0)
(-7.98892e-06 1.166e-06 0)
(-8.6451e-06 1.11448e-06 0)
(-9.27045e-06 1.05922e-06 0)
(-9.86294e-06 1.00037e-06 0)
(-1.04205e-05 9.38256e-07 0)
(-1.09415e-05 8.73125e-07 0)
(-1.14242e-05 8.05106e-07 0)
(-1.18672e-05 7.34455e-07 0)
(-1.2269e-05 6.61546e-07 0)
(-1.26283e-05 5.86613e-07 0)
(-1.29441e-05 5.09776e-07 0)
(-1.32154e-05 4.31266e-07 0)
(-1.34413e-05 3.51426e-07 0)
(-1.3621e-05 2.70504e-07 0)
(-1.37541e-05 1.88648e-07 0)
(-1.38401e-05 1.06092e-07 0)
(-1.38787e-05 2.31594e-08 0)
(-1.38697e-05 -5.98832e-08 0)
(-1.38131e-05 -1.42867e-07 0)
(-1.37092e-05 -2.25558e-07 0)
(-1.35581e-05 -3.0758e-07 0)
(-1.33601e-05 -3.8862e-07 0)
(-1.31161e-05 -4.68535e-07 0)
(-1.28266e-05 -5.47179e-07 0)
(-1.24924e-05 -6.24253e-07 0)
(-1.21143e-05 -6.99436e-07 0)
(-1.16937e-05 -7.72538e-07 0)
(-1.12318e-05 -8.43377e-07 0)
(-1.073e-05 -9.11705e-07 0)
(-1.01895e-05 -9.77254e-07 0)
(-9.61209e-06 -1.03979e-06 0)
(-8.99951e-06 -1.09919e-06 0)
(-8.35365e-06 -1.15525e-06 0)
(-7.67633e-06 -1.2077e-06 0)
(-6.96955e-06 -1.25635e-06 0)
(-6.23566e-06 -1.30104e-06 0)
(-5.47708e-06 -1.34159e-06 0)
(-4.69602e-06 -1.37788e-06 0)
(-3.89477e-06 -1.40971e-06 0)
(-3.07593e-06 -1.43689e-06 0)
(-2.2423e-06 -1.45935e-06 0)
(-1.39667e-06 -1.47691e-06 0)
(-5.41657e-07 -1.48945e-06 0)
(3.20025e-07 -1.49694e-06 0)
(1.18534e-06 -1.49928e-06 0)
(2.05117e-06 -1.49631e-06 0)
(2.91458e-06 -1.48794e-06 0)
(3.77263e-06 -1.47406e-06 0)
(4.62228e-06 -1.45464e-06 0)
(5.46035e-06 -1.42973e-06 0)
(6.28367e-06 -1.39928e-06 0)
(7.08916e-06 -1.36326e-06 0)
(7.87389e-06 -1.3217e-06 0)
(8.63467e-06 -1.27464e-06 0)
(9.36824e-06 -1.22211e-06 0)
(1.00716e-05 -1.16422e-06 0)
(1.07419e-05 -1.10106e-06 0)
(1.13761e-05 -1.03271e-06 0)
(1.19716e-05 -9.59277e-07 0)
(1.25253e-05 -8.80869e-07 0)
(1.30345e-05 -7.97684e-07 0)
(1.34968e-05 -7.0999e-07 0)
(1.39099e-05 -6.18022e-07 0)
(1.42712e-05 -5.2201e-07 0)
(1.45786e-05 -4.22213e-07 0)
(1.48301e-05 -3.18916e-07 0)
(1.50239e-05 -2.12506e-07 0)
(1.51586e-05 -1.03462e-07 0)
(1.52328e-05 7.78168e-09 0)
(1.52453e-05 1.20831e-07 0)
(1.51952e-05 2.35193e-07 0)
(1.50822e-05 3.50289e-07 0)
(1.49061e-05 4.65509e-07 0)
(1.46669e-05 5.8015e-07 0)
(1.43654e-05 6.93455e-07 0)
(1.40023e-05 8.04705e-07 0)
(1.35791e-05 9.13111e-07 0)
(1.30977e-05 1.01769e-06 0)
(1.25607e-05 1.11738e-06 0)
(1.1971e-05 1.21117e-06 0)
(1.1332e-05 1.29789e-06 0)
(1.0648e-05 1.37624e-06 0)
(9.92413e-06 1.4448e-06 0)
(9.16592e-06 1.50208e-06 0)
(8.37986e-06 1.54643e-06 0)
(7.57334e-06 1.57603e-06 0)
(6.75457e-06 1.58892e-06 0)
(5.93272e-06 1.58305e-06 0)
(5.11791e-06 1.55624e-06 0)
(4.32124e-06 1.50631e-06 0)
(3.55466e-06 1.43103e-06 0)
(2.83093e-06 1.32831e-06 0)
(2.16327e-06 1.19657e-06 0)
(1.56502e-06 1.0353e-06 0)
(1.04931e-06 8.45767e-07 0)
(6.27709e-07 6.32476e-07 0)
(3.08871e-07 4.05597e-07 0)
(1.00441e-07 1.85996e-07 0)
(1.24342e-08 1.90916e-08 0)
(9.80136e-09 1.92178e-08 0)
(1.24889e-07 -3.40566e-07 0)
(3.84529e-07 -7.90795e-07 0)
(7.79741e-07 -1.15059e-06 0)
(1.29729e-06 -1.44373e-06 0)
(1.91795e-06 -1.68823e-06 0)
(2.62472e-06 -1.88858e-06 0)
(3.3995e-06 -2.04731e-06 0)
(4.22562e-06 -2.16423e-06 0)
(5.08671e-06 -2.2427e-06 0)
(5.96834e-06 -2.28407e-06 0)
(6.85656e-06 -2.29165e-06 0)
(7.7387e-06 -2.26916e-06 0)
(8.60413e-06 -2.21899e-06 0)
(9.44201e-06 -2.14504e-06 0)
(1.02436e-05 -2.04945e-06 0)
(1.1001e-05 -1.93514e-06 0)
(1.17068e-05 -1.80507e-06 0)
(1.23555e-05 -1.66129e-06 0)
(1.29419e-05 -1.50611e-06 0)
(1.34613e-05 -1.34197e-06 0)
(1.39107e-05 -1.17015e-06 0)
(1.42871e-05 -9.92602e-07 0)
(1.45883e-05 -8.11134e-07 0)
(1.48135e-05 -6.26796e-07 0)
(1.49614e-05 -4.41217e-07 0)
(1.50315e-05 -2.55832e-07 0)
(1.50243e-05 -7.13295e-08 0)
(1.49405e-05 1.11117e-07 0)
(1.4781e-05 2.90249e-07 0)
(1.45474e-05 4.65542e-07 0)
(1.42417e-05 6.36187e-07 0)
(1.38654e-05 8.01236e-07 0)
(1.34215e-05 9.60269e-07 0)
(1.29126e-05 1.11273e-06 0)
(1.23414e-05 1.25779e-06 0)
(1.17111e-05 1.39516e-06 0)
(1.10252e-05 1.52466e-06 0)
(1.02868e-05 1.64573e-06 0)
(9.4997e-06 1.7581e-06 0)
(8.66765e-06 1.86162e-06 0)
(7.79449e-06 1.95605e-06 0)
(6.88406e-06 2.04109e-06 0)
(5.94041e-06 2.11682e-06 0)
(4.96754e-06 2.18324e-06 0)
(3.9694e-06 2.24018e-06 0)
(2.95017e-06 2.28762e-06 0)
(1.91405e-06 2.32554e-06 0)
(8.65039e-07 2.3539e-06 0)
(-1.92935e-07 2.37282e-06 0)
(-1.25584e-06 2.38257e-06 0)
(-2.31969e-06 2.38325e-06 0)
(-3.38063e-06 2.37486e-06 0)
(-4.43476e-06 2.3576e-06 0)
(-5.47831e-06 2.33172e-06 0)
(-6.50771e-06 2.29741e-06 0)
(-7.51943e-06 2.2549e-06 0)
(-8.50991e-06 2.20452e-06 0)
(-9.47579e-06 2.14652e-06 0)
(-1.04139e-05 2.08112e-06 0)
(-1.13211e-05 2.00866e-06 0)
(-1.21943e-05 1.92952e-06 0)
(-1.30308e-05 1.84399e-06 0)
(-1.38279e-05 1.75234e-06 0)
(-1.45831e-05 1.65498e-06 0)
(-1.52938e-05 1.55231e-06 0)
(-1.59578e-05 1.44459e-06 0)
(-1.65732e-05 1.33216e-06 0)
(-1.71379e-05 1.21552e-06 0)
(-1.76502e-05 1.09508e-06 0)
(-1.81085e-05 9.71176e-07 0)
(-1.85115e-05 8.4418e-07 0)
(-1.8858e-05 7.14569e-07 0)
(-1.91466e-05 5.82752e-07 0)
(-1.93766e-05 4.49031e-07 0)
(-1.95474e-05 3.13774e-07 0)
(-1.96583e-05 1.77479e-07 0)
(-1.97089e-05 4.06149e-08 0)
(-1.96991e-05 -9.64836e-08 0)
(-1.9629e-05 -2.33477e-07 0)
(-1.94986e-05 -3.69894e-07 0)
(-1.93082e-05 -5.05241e-07 0)
(-1.90584e-05 -6.39154e-07 0)
(-1.87499e-05 -7.71293e-07 0)
(-1.83837e-05 -9.01202e-07 0)
(-1.79606e-05 -1.02842e-06 0)
(-1.74819e-05 -1.15263e-06 0)
(-1.69489e-05 -1.27355e-06 0)
(-1.63634e-05 -1.39078e-06 0)
(-1.57269e-05 -1.50381e-06 0)
(-1.50412e-05 -1.61226e-06 0)
(-1.43085e-05 -1.71589e-06 0)
(-1.35308e-05 -1.81435e-06 0)
(-1.27106e-05 -1.90728e-06 0)
(-1.18501e-05 -1.99428e-06 0)
(-1.0952e-05 -2.07511e-06 0)
(-1.00191e-05 -2.1496e-06 0)
(-9.05423e-06 -2.21735e-06 0)
(-8.06042e-06 -2.27793e-06 0)
(-7.04062e-06 -2.33118e-06 0)
(-5.99803e-06 -2.37696e-06 0)
(-4.93605e-06 -2.41509e-06 0)
(-3.85805e-06 -2.44525e-06 0)
(-2.76751e-06 -2.46711e-06 0)
(-1.66801e-06 -2.48055e-06 0)
(-5.63185e-07 -2.48558e-06 0)
(5.43199e-07 -2.48199e-06 0)
(1.64741e-06 -2.46955e-06 0)
(2.74572e-06 -2.44813e-06 0)
(3.83426e-06 -2.41772e-06 0)
(4.90908e-06 -2.37832e-06 0)
(5.9663e-06 -2.32988e-06 0)
(7.00209e-06 -2.27231e-06 0)
(8.0126e-06 -2.20566e-06 0)
(8.99393e-06 -2.13009e-06 0)
(9.94212e-06 -2.04568e-06 0)
(1.08534e-05 -1.95245e-06 0)
(1.1724e-05 -1.85051e-06 0)
(1.25504e-05 -1.74009e-06 0)
(1.33292e-05 -1.62149e-06 0)
(1.40566e-05 -1.49495e-06 0)
(1.47294e-05 -1.36064e-06 0)
(1.53444e-05 -1.21889e-06 0)
(1.58985e-05 -1.07014e-06 0)
(1.6389e-05 -9.14861e-07 0)
(1.6813e-05 -7.53544e-07 0)
(1.71683e-05 -5.86684e-07 0)
(1.74525e-05 -4.148e-07 0)
(1.76636e-05 -2.38533e-07 0)
(1.78002e-05 -5.86866e-08 0)
(1.7861e-05 1.23936e-07 0)
(1.78447e-05 3.08581e-07 0)
(1.77509e-05 4.94375e-07 0)
(1.75794e-05 6.80288e-07 0)
(1.73302e-05 8.6522e-07 0)
(1.70043e-05 1.04798e-06 0)
(1.66027e-05 1.22729e-06 0)
(1.61273e-05 1.40181e-06 0)
(1.55804e-05 1.57014e-06 0)
(1.4965e-05 1.73064e-06 0)
(1.42849e-05 1.88149e-06 0)
(1.35443e-05 2.02085e-06 0)
(1.27484e-05 2.14674e-06 0)
(1.19032e-05 2.25695e-06 0)
(1.10156e-05 2.34909e-06 0)
(1.00933e-05 2.42061e-06 0)
(9.14499e-06 2.4688e-06 0)
(8.18052e-06 2.49072e-06 0)
(7.2107e-06 2.48331e-06 0)
(6.24732e-06 2.44344e-06 0)
(5.30311e-06 2.36799e-06 0)
(4.3917e-06 2.25389e-06 0)
(3.52757e-06 2.09839e-06 0)
(2.72562e-06 1.89954e-06 0)
(2.00092e-06 1.65694e-06 0)
(1.36816e-06 1.37283e-06 0)
(8.40613e-07 1.0536e-06 0)
(4.29455e-07 7.11946e-07 0)
(1.48975e-07 3.71747e-07 0)
(2.18078e-08 8.19379e-08 0)
(2.59229e-08 -6.05577e-08 0)
(1.83139e-07 -5.65184e-07 0)
(5.08949e-07 -1.1553e-06 0)
(9.80073e-07 -1.64797e-06 0)
(1.57995e-06 -2.05803e-06 0)
(2.29008e-06 -2.40133e-06 0)
(3.09118e-06 -2.68266e-06 0)
(3.96498e-06 -2.90269e-06 0)
(4.89248e-06 -3.06479e-06 0)
(5.8564e-06 -3.17129e-06 0)
(6.8407e-06 -3.22605e-06 0)
(7.82945e-06 -3.23359e-06 0)
(8.80941e-06 -3.19744e-06 0)
(9.76737e-06 -3.12285e-06 0)
(1.06924e-05 -3.01368e-06 0)
(1.15743e-05 -2.87386e-06 0)
(1.24033e-05 -2.70769e-06 0)
(1.31722e-05 -2.51835e-06 0)
(1.38737e-05 -2.30921e-06 0)
(1.45019e-05 -2.08398e-06 0)
(1.50521e-05 -1.8451e-06 0)
(1.55202e-05 -1.59539e-06 0)
(1.59027e-05 -1.33761e-06 0)
(1.61977e-05 -1.07355e-06 0)
(1.64034e-05 -8.05549e-07 0)
(1.65185e-05 -5.35922e-07 0)
(1.65429e-05 -2.66077e-07 0)
(1.64769e-05 2.30456e-09 0)
(1.63209e-05 2.67484e-07 0)
(1.60765e-05 5.28299e-07 0)
(1.57454e-05 7.83465e-07 0)
(1.53295e-05 1.03156e-06 0)
(1.48314e-05 1.27175e-06 0)
(1.42541e-05 1.50325e-06 0)
(1.36004e-05 1.72492e-06 0)
(1.2874e-05 1.93605e-06 0)
(1.20785e-05 2.13611e-06 0)
(1.1218e-05 2.32437e-06 0)
(1.02962e-05 2.5003e-06 0)
(9.31768e-06 2.66359e-06 0)
(8.2867e-06 2.81391e-06 0)
(7.20774e-06 2.95086e-06 0)
(6.08552e-06 3.07422e-06 0)
(4.92488e-06 3.18385e-06 0)
(3.73047e-06 3.27958e-06 0)
(2.50706e-06 3.36137e-06 0)
(1.25952e-06 3.42933e-06 0)
(-7.31758e-09 3.48337e-06 0)
(-1.2886e-06 3.52341e-06 0)
(-2.57945e-06 3.5496e-06 0)
(-3.87512e-06 3.56215e-06 0)
(-5.17102e-06 3.56125e-06 0)
(-6.4625e-06 3.5471e-06 0)
(-7.74493e-06 3.52e-06 0)
(-9.01386e-06 3.48018e-06 0)
(-1.0265e-05 3.42792e-06 0)
(-1.1494e-05 3.36364e-06 0)
(-1.26969e-05 3.28775e-06 0)
(-1.38695e-05 3.20059e-06 0)
(-1.50081e-05 3.10257e-06 0)
(-1.61088e-05 2.99421e-06 0)
(-1.71682e-05 2.87593e-06 0)
(-1.81829e-05 2.74813e-06 0)
(-1.91496e-05 2.61135e-06 0)
(-2.00653e-05 2.4662e-06 0)
(-2.09271e-05 2.31314e-06 0)
(-2.17325e-05 2.15263e-06 0)
(-2.24788e-05 1.98529e-06 0)
(-2.31637e-05 1.81177e-06 0)
(-2.37852e-05 1.63254e-06 0)
(-2.43414e-05 1.44811e-06 0)
(-2.48306e-05 1.25916e-06 0)
(-2.52513e-05 1.06637e-06 0)
(-2.56022e-05 8.7026e-07 0)
(-2.58823e-05 6.71335e-07 0)
(-2.60907e-05 4.70217e-07 0)
(-2.62267e-05 2.67596e-07 0)
(-2.62897e-05 6.40535e-08 0)
(-2.62799e-05 -1.3989e-07 0)
(-2.6197e-05 -3.43594e-07 0)
(-2.60412e-05 -5.46349e-07 0)
(-2.5813e-05 -7.47573e-07 0)
(-2.5513e-05 -9.46791e-07 0)
(-2.5142e-05 -1.14341e-06 0)
(-2.4701e-05 -1.3367e-06 0)
(-2.41912e-05 -1.52604e-06 0)
(-2.36142e-05 -1.71096e-06 0)
(-2.29716e-05 -1.89098e-06 0)
(-2.22652e-05 -2.0655e-06 0)
(-2.1497e-05 -2.23387e-06 0)
(-2.06693e-05 -2.39555e-06 0)
(-1.97844e-05 -2.55016e-06 0)
(-1.8845e-05 -2.69715e-06 0)
(-1.78537e-05 -2.83592e-06 0)
(-1.68135e-05 -2.96598e-06 0)
(-1.57275e-05 -3.08696e-06 0)
(-1.4599e-05 -3.19854e-06 0)
(-1.34314e-05 -3.30024e-06 0)
(-1.22281e-05 -3.39146e-06 0)
(-1.0993e-05 -3.47185e-06 0)
(-9.72988e-06 -3.5412e-06 0)
(-8.44262e-06 -3.59917e-06 0)
(-7.13518e-06 -3.64539e-06 0)
(-5.81174e-06 -3.67953e-06 0)
(-4.47673e-06 -3.70129e-06 0)
(-3.1345e-06 -3.71052e-06 0)
(-1.78934e-06 -3.70704e-06 0)
(-4.45701e-07 -3.69053e-06 0)
(8.91833e-07 -3.66084e-06 0)
(2.21864e-06 -3.61796e-06 0)
(3.53013e-06 -3.56184e-06 0)
(4.82171e-06 -3.49239e-06 0)
(6.08878e-06 -3.40955e-06 0)
(7.32668e-06 -3.31336e-06 0)
(8.53074e-06 -3.20401e-06 0)
(9.69643e-06 -3.08167e-06 0)
(1.08193e-05 -2.94642e-06 0)
(1.18948e-05 -2.79839e-06 0)
(1.29187e-05 -2.63789e-06 0)
(1.38867e-05 -2.4653e-06 0)
(1.47949e-05 -2.28105e-06 0)
(1.56392e-05 -2.08556e-06 0)
(1.64158e-05 -1.87922e-06 0)
(1.71211e-05 -1.6626e-06 0)
(1.77517e-05 -1.43642e-06 0)
(1.83044e-05 -1.2014e-06 0)
(1.87765e-05 -9.58302e-07 0)
(1.91653e-05 -7.07974e-07 0)
(1.94686e-05 -4.51344e-07 0)
(1.96843e-05 -1.8943e-07 0)
(1.9811e-05 7.65816e-08 0)
(1.98475e-05 3.45414e-07 0)
(1.97932e-05 6.15774e-07 0)
(1.96477e-05 8.86249e-07 0)
(1.94113e-05 1.15523e-06 0)
(1.90848e-05 1.42099e-06 0)
(1.86698e-05 1.6817e-06 0)
(1.81682e-05 1.93538e-06 0)
(1.75829e-05 2.17992e-06 0)
(1.69173e-05 2.41304e-06 0)
(1.61757e-05 2.6322e-06 0)
(1.53631e-05 2.83466e-06 0)
(1.44855e-05 3.01754e-06 0)
(1.35497e-05 3.17783e-06 0)
(1.25635e-05 3.3122e-06 0)
(1.15358e-05 3.41707e-06 0)
(1.04765e-05 3.48868e-06 0)
(9.39655e-06 3.52312e-06 0)
(8.30793e-06 3.51629e-06 0)
(7.22385e-06 3.46399e-06 0)
(6.15836e-06 3.3621e-06 0)
(5.12635e-06 3.20678e-06 0)
(4.14352e-06 2.99472e-06 0)
(3.22619e-06 2.72364e-06 0)
(2.39095e-06 2.3931e-06 0)
(1.65434e-06 2.00578e-06 0)
(1.03167e-06 1.56909e-06 0)
(5.36943e-07 1.09703e-06 0)
(1.91243e-07 6.14254e-07 0)
(2.95404e-08 1.69037e-07 0)
(3.63367e-08 -1.68691e-07 0)
(2.26902e-07 -8.44871e-07 0)
(6.09509e-07 -1.58739e-06 0)
(1.14725e-06 -2.21992e-06 0)
(1.81987e-06 -2.75282e-06 0)
(2.60581e-06 -3.19987e-06 0)
(3.48665e-06 -3.56428e-06 0)
(4.44112e-06 -3.84873e-06 0)
(5.44943e-06 -4.05607e-06 0)
(6.49365e-06 -4.1902e-06 0)
(7.55565e-06 -4.25682e-06 0)
(8.61981e-06 -4.2604e-06 0)
(9.67043e-06 -4.20717e-06 0)
(1.06941e-05 -4.10241e-06 0)
(1.16786e-05 -3.95137e-06 0)
(1.26124e-05 -3.76011e-06 0)
(1.34858e-05 -3.53312e-06 0)
(1.42902e-05 -3.27514e-06 0)
(1.50175e-05 -2.99107e-06 0)
(1.56615e-05 -2.68471e-06 0)
(1.62168e-05 -2.35996e-06 0)
(1.66786e-05 -2.02086e-06 0)
(1.70438e-05 -1.67032e-06 0)
(1.73096e-05 -1.31147e-06 0)
(1.74737e-05 -9.47568e-07 0)
(1.75355e-05 -5.80939e-07 0)
(1.74945e-05 -2.14046e-07 0)
(1.73507e-05 1.50586e-07 0)
(1.71052e-05 5.11131e-07 0)
(1.67595e-05 8.65815e-07 0)
(1.63153e-05 1.21258e-06 0)
(1.57752e-05 1.54995e-06 0)
(1.51421e-05 1.87664e-06 0)
(1.4419e-05 2.19116e-06 0)
(1.36096e-05 2.49237e-06 0)
(1.27179e-05 2.77938e-06 0)
(1.17481e-05 3.05123e-06 0)
(1.07045e-05 3.30694e-06 0)
(9.59186e-06 3.54591e-06 0)
(8.4152e-06 3.76755e-06 0)
(7.17943e-06 3.97129e-06 0)
(5.88969e-06 4.15677e-06 0)
(4.5514e-06 4.32376e-06 0)
(3.16997e-06 4.47189e-06 0)
(1.75087e-06 4.60091e-06 0)
(2.99695e-07 4.71079e-06 0)
(-1.17805e-06 4.80153e-06 0)
(-2.67693e-06 4.87314e-06 0)
(-4.19133e-06 4.92568e-06 0)
(-5.71561e-06 4.95931e-06 0)
(-7.24432e-06 4.97414e-06 0)
(-8.77209e-06 4.97042e-06 0)
(-1.02936e-05 4.94853e-06 0)
(-1.18035e-05 4.90882e-06 0)
(-1.32968e-05 4.85162e-06 0)
(-1.47685e-05 4.77737e-06 0)
(-1.62135e-05 4.68659e-06 0)
(-1.76271e-05 4.57977e-06 0)
(-1.90048e-05 4.45741e-06 0)
(-2.03421e-05 4.32019e-06 0)
(-2.16346e-05 4.16871e-06 0)
(-2.28784e-05 4.00352e-06 0)
(-2.40695e-05 3.82526e-06 0)
(-2.52041e-05 3.63471e-06 0)
(-2.62787e-05 3.43255e-06 0)