/*--------------------------------*- C++ -*----------------------------------*\
  =========                 |
  \\      /  F ield         | OpenFOAM: The Open Source CFD Toolbox
   \\    /   O peration     | Website:  https://openfoam.org
    \\  /    A nd           | Version:  7
     \\/     M anipulation  |
\*---------------------------------------------------------------------------*/
FoamFile
{
    version     2.0;
    format      ascii;
    class       surfaceScalarField;
    location    "0.025";
    object      phi;
}
// * * * * * * * * * * * * * * * * * * * * * * * * * * * * * * * * * * * * * //

dimensions      [0 3 -1 0 0 0 0];

internalField   nonuniform List<scalar> 
25360
(
9.82167e-11
-9.81947e-11
2.10956e-10
-1.1274e-10
2.38548e-10
-2.75911e-11
1.43219e-10
9.53328e-11
-8.37536e-11
2.26973e-10
-4.37751e-10
3.53997e-10
-9.07965e-10
4.70213e-10
-1.48112e-09
5.73153e-10
-2.14338e-09
6.62255e-10
-2.88129e-09
7.37915e-10
-3.6823e-09
8.01009e-10
-4.53493e-09
8.52629e-10
-5.42884e-09
8.93916e-10
-6.35485e-09
9.26006e-10
-7.3049e-09
9.50046e-10
-8.27203e-09
9.67127e-10
-9.25025e-09
9.78223e-10
-1.02344e-08
9.84182e-10
-1.12202e-08
9.85778e-10
-1.22039e-08
9.83699e-10
-1.31825e-08
9.7858e-10
-1.41534e-08
9.70961e-10
-1.51147e-08
9.61298e-10
-1.60647e-08
9.49944e-10
-1.70019e-08
9.372e-10
-1.79252e-08
9.23322e-10
-1.88338e-08
9.08551e-10
-1.97268e-08
8.9308e-10
-2.06039e-08
8.77058e-10
-2.14645e-08
8.60578e-10
-2.23082e-08
8.43734e-10
-2.31348e-08
8.26617e-10
-2.39441e-08
8.0929e-10
-2.47359e-08
7.91814e-10
-2.55102e-08
7.74246e-10
-2.62668e-08
7.56597e-10
-2.70057e-08
7.38908e-10
-2.77269e-08
7.21249e-10
-2.84306e-08
7.03614e-10
-2.91166e-08
6.86012e-10
-2.9785e-08
6.6846e-10
-3.0436e-08
6.5098e-10
-3.10696e-08
6.33613e-10
-3.1686e-08
6.16359e-10
-3.22852e-08
5.99242e-10
-3.28675e-08
5.82271e-10
-3.34329e-08
5.65433e-10
-3.39817e-08
5.48751e-10
-3.45139e-08
5.32247e-10
-3.50299e-08
5.15928e-10
-3.55296e-08
4.99787e-10
-3.60135e-08
4.83817e-10
-3.64815e-08
4.68046e-10
-3.6934e-08
4.52497e-10
-3.73712e-08
4.37178e-10
-3.77933e-08
4.22077e-10
-3.82004e-08
4.07162e-10
-3.85929e-08
3.92447e-10
-3.89708e-08
3.77973e-10
-3.93346e-08
3.63724e-10
-3.96842e-08
3.49678e-10
-4.00201e-08
3.35853e-10
-4.03423e-08
3.22242e-10
-4.06512e-08
3.0881e-10
-4.09467e-08
2.95571e-10
-4.12293e-08
2.82541e-10
-4.14989e-08
2.69684e-10
-4.17559e-08
2.56977e-10
-4.20004e-08
2.44441e-10
-4.22324e-08
2.32054e-10
-4.24522e-08
2.19755e-10
-4.26597e-08
2.07528e-10
-4.28551e-08
1.95395e-10
-4.30384e-08
1.83339e-10
-4.32098e-08
1.71311e-10
-4.3369e-08
1.59294e-10
-4.35163e-08
1.47301e-10
-4.36517e-08
1.35313e-10
-4.3775e-08
1.23295e-10
-4.38862e-08
1.11239e-10
-4.39853e-08
9.91509e-11
-4.40724e-08
8.70113e-11
-4.41471e-08
7.47808e-11
-4.42096e-08
6.2441e-11
-4.42596e-08
4.99896e-11
-4.4297e-08
3.74014e-11
-4.43216e-08
2.46283e-11
-4.43332e-08
1.16374e-11
-4.43316e-08
-1.58204e-12
-4.43166e-08
-1.50462e-11
-4.42878e-08
-2.8797e-11
-4.42449e-08
-4.28749e-11
-4.41876e-08
-5.72999e-11
-4.41155e-08
-7.20838e-11
-4.40283e-08
-8.72523e-11
-4.39254e-08
-1.02844e-10
-4.38066e-08
-1.1889e-10
-4.36712e-08
-1.354e-10
-4.35188e-08
-1.52382e-10
-4.33489e-08
-1.69858e-10
-4.3161e-08
-1.87865e-10
-4.29546e-08
-2.0643e-10
-4.2729e-08
-2.25566e-10
-4.24838e-08
-2.45284e-10
-4.22182e-08
-2.65609e-10
-4.19316e-08
-2.86572e-10
-4.16234e-08
-3.08194e-10
-4.12929e-08
-3.30487e-10
-4.09394e-08
-3.5346e-10
-4.05623e-08
-3.77131e-10
-4.01608e-08
-4.01515e-10
-3.97342e-08
-4.26616e-10
-3.92818e-08
-4.52427e-10
-3.88028e-08
-4.78937e-10
-3.82967e-08
-5.06141e-10
-3.77626e-08
-5.34034e-10
-3.72e-08
-5.62605e-10
-3.66082e-08
-5.91828e-10
-3.59865e-08
-6.21668e-10
-3.53345e-08
-6.52086e-10
-3.46514e-08
-6.83046e-10
-3.39369e-08
-7.14502e-10
-3.31905e-08
-7.46396e-10
-3.24119e-08
-7.78655e-10
-3.16007e-08
-8.11194e-10
-3.07567e-08
-8.43926e-10
-2.988e-08
-8.76759e-10
-2.89704e-08
-9.09587e-10
-2.80281e-08
-9.42278e-10
-2.70535e-08
-9.74669e-10
-2.60469e-08
-1.00658e-09
-2.50091e-08
-1.03781e-09
-2.39409e-08
-1.06815e-09
-2.28436e-08
-1.09737e-09
-2.17184e-08
-1.12516e-09
-2.05672e-08
-1.1512e-09
-1.93921e-08
-1.17512e-09
-1.81956e-08
-1.19652e-09
-1.69806e-08
-1.21494e-09
-1.57508e-08
-1.22983e-09
-1.45102e-08
-1.24062e-09
-1.32635e-08
-1.24667e-09
-1.20162e-08
-1.24728e-09
-1.07746e-08
-1.24165e-09
-9.54568e-09
-1.22891e-09
-8.33755e-09
-1.20812e-09
-7.15927e-09
-1.17828e-09
-6.02097e-09
-1.1383e-09
-4.93393e-09
-1.08704e-09
-3.91065e-09
-1.02328e-09
-2.96479e-09
-9.45851e-10
-2.11122e-09
-8.5357e-10
-1.36579e-09
-7.45431e-10
-7.44983e-10
-6.20808e-10
-2.65041e-10
-4.79942e-10
5.9925e-11
-3.24965e-10
2.21956e-10
-1.6203e-10
2.27532e-10
-5.57537e-12
1.15503e-10
1.12026e-10
1.15501e-10
1.12847e-10
-2.11042e-10
1.5748e-10
-1.57374e-10
-1.32535e-11
1.43138e-10
-4.69241e-10
5.5132e-10
-1.23617e-09
9.93898e-10
-2.31183e-09
1.42966e-09
-3.67795e-09
1.83633e-09
-5.3078e-09
2.20301e-09
-7.17093e-09
2.52537e-09
-9.2359e-09
2.80289e-09
-1.14721e-08
3.03717e-09
-1.38505e-08
3.23106e-09
-1.63446e-08
3.38799e-09
-1.89302e-08
3.51162e-09
-2.15858e-08
3.60566e-09
-2.42924e-08
3.67374e-09
-2.70334e-08
3.71925e-09
-2.97945e-08
3.74527e-09
-3.25634e-08
3.75463e-09
-3.53295e-08
3.74986e-09
-3.80842e-08
3.73322e-09
-4.08199e-08
3.70667e-09
-4.35305e-08
3.6719e-09
-4.62109e-08
3.63035e-09
-4.88569e-08
3.58322e-09
-5.14651e-08
3.53154e-09
-5.40327e-08
3.47615e-09
-5.65574e-08
3.41779e-09
-5.90374e-08
3.35704e-09
-6.14712e-08
3.29437e-09
-6.38576e-08
3.23015e-09
-6.61957e-08
3.16474e-09
-6.84849e-08
3.09841e-09
-7.07245e-08
3.03141e-09
-7.29142e-08
2.96395e-09
-7.50537e-08
2.89617e-09
-7.7143e-08
2.82819e-09
-7.91819e-08
2.76017e-09
-8.11705e-08
2.6922e-09
-8.31089e-08
2.62435e-09
-8.49971e-08
2.55671e-09
-8.68355e-08
2.48936e-09
-8.86243e-08
2.42238e-09
-9.03638e-08
2.35584e-09
-9.20543e-08
2.28981e-09
-9.36964e-08
2.22432e-09
-9.52904e-08
2.15942e-09
-9.68367e-08
2.09514e-09
-9.8336e-08
2.03151e-09
-9.97887e-08
1.96858e-09
-1.01195e-07
1.90637e-09
-1.02556e-07
1.84488e-09
-1.03872e-07
1.78418e-09
-1.05144e-07
1.7243e-09
-1.06372e-07
1.66523e-09
-1.07557e-07
1.60701e-09
-1.087e-07
1.54961e-09
-1.098e-07
1.49303e-09
-1.1086e-07
1.43726e-09
-1.11878e-07
1.38234e-09
-1.12857e-07
1.32824e-09
-1.13796e-07
1.27493e-09
-1.14696e-07
1.22239e-09
-1.15558e-07
1.17063e-09
-1.16382e-07
1.1196e-09
-1.17169e-07
1.06928e-09
-1.17918e-07
1.01962e-09
-1.18632e-07
9.70593e-10
-1.1931e-07
9.22129e-10
-1.19952e-07
8.74165e-10
-1.20559e-07
8.26641e-10
-1.21131e-07
7.79495e-10
-1.21668e-07
7.32659e-10
-1.22171e-07
6.86067e-10
-1.22639e-07
6.39655e-10
-1.23073e-07
5.93366e-10
-1.23473e-07
5.47136e-10
-1.23839e-07
5.00903e-10
-1.2417e-07
4.54612e-10
-1.24467e-07
4.08216e-10
-1.24729e-07
3.61657e-10
-1.24957e-07
3.14858e-10
-1.2515e-07
2.67742e-10
-1.25308e-07
2.20237e-10
-1.2543e-07
1.72258e-10
-1.25517e-07
1.23705e-10
-1.25566e-07
7.44723e-11
-1.25579e-07
2.44629e-11
-1.25554e-07
-2.64107e-11
-1.25491e-07
-7.82427e-11
-1.25389e-07
-1.31139e-10
-1.25247e-07
-1.85205e-10
-1.25063e-07
-2.40535e-10
-1.24838e-07
-2.97225e-10
-1.2457e-07
-3.55376e-10
-1.24258e-07
-4.15088e-10
-1.239e-07
-4.76453e-10
-1.23496e-07
-5.39544e-10
-1.23044e-07
-6.04436e-10
-1.22543e-07
-6.71205e-10
-1.21991e-07
-7.39936e-10
-1.21386e-07
-8.10715e-10
-1.20728e-07
-8.83622e-10
-1.20015e-07
-9.58736e-10
-1.19244e-07
-1.03614e-09
-1.18415e-07
-1.11591e-09
-1.17525e-07
-1.19813e-09
-1.16573e-07
-1.28284e-09
-1.15556e-07
-1.37009e-09
-1.14473e-07
-1.4599e-09
-1.13322e-07
-1.55232e-09
-1.12102e-07
-1.64735e-09
-1.10809e-07
-1.74499e-09
-1.09443e-07
-1.84522e-09
-1.08001e-07
-1.94802e-09
-1.06482e-07
-2.05334e-09
-1.04883e-07
-2.16112e-09
-1.03204e-07
-2.27125e-09
-1.01442e-07
-2.38362e-09
-9.95958e-08
-2.49808e-09
-9.76644e-08
-2.61448e-09
-9.56462e-08
-2.73262e-09
-9.35403e-08
-2.85229e-09
-9.13458e-08
-2.97324e-09
-8.90618e-08
-3.09515e-09
-8.6688e-08
-3.21769e-09
-8.42243e-08
-3.34047e-09
-8.16709e-08
-3.46303e-09
-7.90283e-08
-3.58488e-09
-7.62975e-08
-3.70543e-09
-7.34801e-08
-3.82402e-09
-7.0578e-08
-3.93992e-09
-6.75938e-08
-4.05229e-09
-6.4531e-08
-4.16018e-09
-6.13937e-08
-4.26249e-09
-5.81869e-08
-4.35799e-09
-5.49167e-08
-4.4453e-09
-5.15904e-08
-4.52286e-09
-4.82164e-08
-4.58894e-09
-4.48046e-08
-4.64161e-09
-4.13665e-08
-4.67871e-09
-3.79153e-08
-4.69785e-09
-3.44662e-08
-4.69642e-09
-3.10363e-08
-4.67155e-09
-2.76451e-08
-4.62011e-09
-2.43144e-08
-4.53877e-09
-2.10687e-08
-4.42401e-09
-1.79349e-08
-4.27215e-09
-1.49425e-08
-4.07938e-09
-1.21238e-08
-3.84195e-09
-9.51339e-09
-3.55631e-09
-7.14753e-09
-3.21943e-09
-5.06357e-09
-2.82938e-09
-3.29812e-09
-2.38626e-09
-1.88417e-09
-1.89389e-09
-8.46146e-10
-1.36299e-09
-1.91385e-10
-8.16787e-10
1.03187e-10
-3.0014e-10
1.11868e-10
1.03355e-10
2.27366e-10
2.93742e-11
-2.40415e-10
-1.40538e-10
1.25423e-11
-6.51967e-10
6.54566e-10
-1.57939e-09
1.47874e-09
-2.95237e-09
2.36688e-09
-4.76935e-09
3.24664e-09
-7.00835e-09
4.07533e-09
-9.63515e-09
4.82981e-09
-1.26091e-08
5.49931e-09
-1.58869e-08
6.08068e-09
-1.94252e-08
6.57548e-09
-2.31823e-08
6.98815e-09
-2.7119e-08
7.32474e-09
-3.11995e-08
7.59212e-09
-3.53913e-08
7.79742e-09
-3.96653e-08
7.94777e-09
-4.3996e-08
8.04996e-09
-4.83611e-08
8.11034e-09
-5.27412e-08
8.13472e-09
-5.71197e-08
8.12841e-09
-6.14826e-08
8.09608e-09
-6.58178e-08
8.04191e-09
-7.01154e-08
7.96948e-09
-7.4367e-08
7.88189e-09
-7.85655e-08
7.78176e-09
-8.27053e-08
7.67132e-09
-8.67816e-08
7.55247e-09
-9.07906e-08
7.42679e-09
-9.47291e-08
7.29557e-09
-9.85947e-08
7.15989e-09
-1.02385e-07
7.02065e-09
-1.06099e-07
6.87861e-09
-1.09735e-07
6.7344e-09
-1.13292e-07
6.58856e-09
-1.1677e-07
6.44154e-09
-1.20167e-07
6.29371e-09
-1.23485e-07
6.1454e-09
-1.26721e-07
5.99689e-09
-1.29877e-07
5.84843e-09
-1.32953e-07
5.7002e-09
-1.35949e-07
5.5524e-09
-1.38865e-07
5.40525e-09
-1.41701e-07
5.25887e-09
-1.44459e-07
5.11345e-09
-1.47138e-07
4.96911e-09
-1.4974e-07
4.82596e-09
-1.52265e-07
4.6841e-09
-1.54713e-07
4.54364e-09
-1.57086e-07
4.40463e-09
-1.59385e-07
4.26716e-09
-1.6161e-07
4.13129e-09
-1.63762e-07
3.99707e-09
-1.65842e-07
3.86457e-09
-1.67852e-07
3.73384e-09
-1.69792e-07
3.60491e-09
-1.71662e-07
3.47779e-09
-1.73465e-07
3.35247e-09
-1.75201e-07
3.22896e-09
-1.76871e-07
3.10727e-09
-1.78476e-07
2.98737e-09
-1.80017e-07
2.86922e-09
-1.81495e-07
2.75282e-09
-1.82911e-07
2.63811e-09
-1.84265e-07
2.52502e-09
-1.85559e-07
2.41351e-09
-1.86793e-07
2.30353e-09
-1.87969e-07
2.19497e-09
-1.89086e-07
2.08772e-09
-1.90145e-07
1.98169e-09
-1.91148e-07
1.87678e-09
-1.92094e-07
1.77282e-09
-1.92984e-07
1.66969e-09
-1.93819e-07
1.56728e-09
-1.94598e-07
1.46546e-09
-1.95323e-07
1.36407e-09
-1.95992e-07
1.26297e-09
-1.96607e-07
1.16204e-09
-1.97168e-07
1.06116e-09
-1.97673e-07
9.60186e-10
-1.98124e-07
8.58968e-10
-1.9852e-07
7.57376e-10
-1.9886e-07
6.55262e-10
-1.99145e-07
5.52455e-10
-1.99373e-07
4.48772e-10
-1.99545e-07
3.44033e-10
-1.99659e-07
2.38047e-10
-1.99715e-07
1.30612e-10
-1.99713e-07
2.15186e-11
-1.99649e-07
-8.94324e-11
-1.99525e-07
-2.02439e-10
-1.99339e-07
-3.1771e-10
-1.99088e-07
-4.35456e-10
-1.98773e-07
-5.55888e-10
-1.98391e-07
-6.79212e-10
-1.97941e-07
-8.05633e-10
-1.97421e-07
-9.35353e-10
-1.96828e-07
-1.06857e-09
-1.96163e-07
-1.20546e-09
-1.95421e-07
-1.3462e-09
-1.94601e-07
-1.49096e-09
-1.93701e-07
-1.63994e-09
-1.92718e-07
-1.7933e-09
-1.91651e-07
-1.95122e-09
-1.90496e-07
-2.11387e-09
-1.8925e-07
-2.2814e-09
-1.87912e-07
-2.45398e-09
-1.86479e-07
-2.63174e-09
-1.84947e-07
-2.8148e-09
-1.83314e-07
-3.00324e-09
-1.81576e-07
-3.19712e-09
-1.79732e-07
-3.3965e-09
-1.77778e-07
-3.60141e-09
-1.75711e-07
-3.81182e-09
-1.73529e-07
-4.02771e-09
-1.71228e-07
-4.249e-09
-1.68806e-07
-4.47559e-09
-1.66259e-07
-4.70731e-09
-1.63587e-07
-4.94396e-09
-1.60785e-07
-5.18529e-09
-1.57852e-07
-5.43099e-09
-1.54786e-07
-5.6807e-09
-1.51585e-07
-5.93401e-09
-1.48246e-07
-6.19044e-09
-1.4477e-07
-6.44942e-09
-1.41155e-07
-6.7103e-09
-1.374e-07
-6.97234e-09
-1.33506e-07
-7.23467e-09
-1.29473e-07
-7.49633e-09
-1.25302e-07
-7.75621e-09
-1.20994e-07
-8.01306e-09
-1.16552e-07
-8.26546e-09
-1.11981e-07
-8.51182e-09
-1.07283e-07
-8.7503e-09
-1.02464e-07
-8.97884e-09
-9.75313e-08
-9.1951e-09
-9.24929e-08
-9.39643e-09
-8.73583e-08
-9.57988e-09
-8.2139e-08
-9.74213e-09
-7.68485e-08
-9.87948e-09
-7.15023e-08
-9.98782e-09
-6.61184e-08
-1.00626e-08
-6.07175e-08
-1.00987e-08
-5.53231e-08
-1.00908e-08
-4.99618e-08
-1.00328e-08
-4.46635e-08
-9.91839e-09
-3.94616e-08
-9.74071e-09
-3.43929e-08
-9.4927e-09
-2.9498e-08
-9.16705e-09
-2.48209e-08
-8.75648e-09
-2.04088e-08
-8.25402e-09
-1.63117e-08
-7.65348e-09
-1.25809e-08
-6.95019e-09
-9.26803e-09
-6.14224e-09
-6.42193e-09
-5.23236e-09
-4.08476e-09
-4.23106e-09
-2.28583e-09
-3.16191e-09
-1.0325e-09
-2.07012e-09
-2.97878e-10
-1.03476e-09
-5.06171e-12
-1.89456e-10
2.22305e-10
-9.35668e-11
-1.46851e-10
-5.49343e-10
4.68321e-10
-1.47829e-09
1.58352e-09
-2.94077e-09
2.94121e-09
-4.95942e-09
4.38553e-09
-7.52824e-09
5.81546e-09
-1.06208e-08
7.16787e-09
-1.41972e-08
8.40624e-09
-1.82098e-08
9.51192e-09
-2.26072e-08
1.0478e-08
-2.73369e-08
1.13052e-08
-3.2348e-08
1.19993e-08
-3.75921e-08
1.25688e-08
-4.30239e-08
1.3024e-08
-4.86024e-08
1.33759e-08
-5.42905e-08
1.36358e-08
-6.00551e-08
1.38146e-08
-6.58672e-08
1.39224e-08
-7.17014e-08
1.39689e-08
-7.75358e-08
1.39628e-08
-8.33515e-08
1.39118e-08
-8.91326e-08
1.38229e-08
-9.48653e-08
1.37022e-08
-1.00538e-07
1.35549e-08
-1.06142e-07
1.33855e-08
-1.11669e-07
1.31979e-08
-1.17111e-07
1.29952e-08
-1.22465e-07
1.27804e-08
-1.27725e-07
1.25555e-08
-1.32888e-07
1.23226e-08
-1.3795e-07
1.20832e-08
-1.4291e-07
1.18387e-08
-1.47766e-07
1.15903e-08
-1.52516e-07
1.13388e-08
-1.5716e-07
1.1085e-08
-1.61696e-07
1.08298e-08
-1.66124e-07
1.05735e-08
-1.70444e-07
1.03168e-08
-1.74656e-07
1.00601e-08
-1.78759e-07
9.80384e-09
-1.82755e-07
9.54825e-09
-1.86644e-07
9.29374e-09
-1.90425e-07
9.04059e-09
-1.94101e-07
8.78904e-09
-1.97671e-07
8.53937e-09
-2.01137e-07
8.29177e-09
-2.04499e-07
8.04642e-09
-2.07759e-07
7.80349e-09
-2.10918e-07
7.56313e-09
-2.13976e-07
7.32546e-09
-2.16935e-07
7.09061e-09
-2.19797e-07
6.85865e-09
-2.22562e-07
6.6297e-09
-2.25232e-07
6.40382e-09
-2.27808e-07
6.18102e-09
-2.30292e-07
5.96138e-09
-2.32684e-07
5.74489e-09
-2.34987e-07
5.53153e-09
-2.37201e-07
5.32128e-09
-2.39328e-07
5.11414e-09
-2.41368e-07
4.91005e-09
-2.43324e-07
4.70892e-09
-2.45197e-07
4.5107e-09
-2.46987e-07
4.31531e-09
-2.48696e-07
4.1226e-09
-2.50325e-07
3.93245e-09
-2.51875e-07
3.74474e-09
-2.53347e-07
3.5593e-09
-2.54741e-07
3.37596e-09
-2.56059e-07
3.19449e-09
-2.57301e-07
3.01472e-09
-2.58467e-07
2.83642e-09
-2.59559e-07
2.65939e-09
-2.60577e-07
2.48338e-09
-2.61521e-07
2.30818e-09
-2.62392e-07
2.13355e-09
-2.63189e-07
1.95927e-09
-2.63913e-07
1.78509e-09
-2.64564e-07
1.61076e-09
-2.65141e-07
1.43604e-09
-2.65644e-07
1.26069e-09
-2.66073e-07
1.08441e-09
-2.66428e-07
9.06923e-10
-2.66707e-07
7.27931e-10
-2.6691e-07
5.47127e-10
-2.67036e-07
3.64183e-10
-2.67084e-07
1.78764e-10
-2.67053e-07
-9.46805e-12
-2.66942e-07
-2.00848e-10
-2.66749e-07
-3.95716e-10
-2.66472e-07
-5.94421e-10
-2.6611e-07
-7.97314e-10
-2.65661e-07
-1.00474e-09
-2.65123e-07
-1.21705e-09
-2.64494e-07
-1.43458e-09
-2.63772e-07
-1.65768e-09
-2.62954e-07
-1.88668e-09
-2.62037e-07
-2.1219e-09
-2.6102e-07
-2.36365e-09
-2.59899e-07
-2.61223e-09
-2.58671e-07
-2.86797e-09
-2.57333e-07
-3.13115e-09
-2.55882e-07
-3.40208e-09
-2.54315e-07
-3.68102e-09
-2.52628e-07
-3.96824e-09
-2.50818e-07
-4.26399e-09
-2.48881e-07
-4.56848e-09
-2.46814e-07
-4.8819e-09
-2.44613e-07
-5.20438e-09
-2.42274e-07
-5.53605e-09
-2.39794e-07
-5.87697e-09
-2.37168e-07
-6.22718e-09
-2.34393e-07
-6.58665e-09
-2.31465e-07
-6.95531e-09
-2.28381e-07
-7.33302e-09
-2.25137e-07
-7.71959e-09
-2.2173e-07
-8.11473e-09
-2.18156e-07
-8.51809e-09
-2.14412e-07
-8.92925e-09
-2.10495e-07
-9.34767e-09
-2.06403e-07
-9.77274e-09
-2.02133e-07
-1.02037e-08
-1.97684e-07
-1.06398e-08
-1.93054e-07
-1.108e-08
-1.88241e-07
-1.15232e-08
-1.83245e-07
-1.1968e-08
-1.78067e-07
-1.24131e-08
-1.72706e-07
-1.28568e-08
-1.67165e-07
-1.32971e-08
-1.61446e-07
-1.37319e-08
-1.55553e-07
-1.41587e-08
-1.4949e-07
-1.45749e-08
-1.43263e-07
-1.49773e-08
-1.3688e-07
-1.53624e-08
-1.30349e-07
-1.57261e-08
-1.23681e-07
-1.6064e-08
-1.1689e-07
-1.63711e-08
-1.0999e-07
-1.66417e-08
-1.03e-07
-1.68697e-08
-9.59398e-08
-1.7048e-08
-8.88332e-08
-1.71691e-08
-8.17074e-08
-1.72245e-08
-7.4593e-08
-1.72052e-08
-6.75245e-08
-1.71014e-08
-6.05403e-08
-1.69026e-08
-5.36833e-08
-1.65977e-08
-4.70004e-08
-1.61756e-08
-4.05428e-08
-1.56246e-08
-3.43656e-08
-1.49337e-08
-2.85273e-08
-1.40923e-08
-2.30888e-08
-1.3092e-08
-1.81123e-08
-1.19267e-08
-1.36588e-08
-1.05957e-08
-9.78548e-09
-9.1057e-09
-6.54099e-09
-7.47555e-09
-3.95984e-09
-5.74306e-09
-2.05469e-09
-3.97527e-09
-8.07341e-10
-2.28211e-09
-1.59252e-10
-8.37545e-10
6.30547e-11
-2.26288e-10
7.94347e-11
-9.96772e-10
1.2388e-09
-2.37745e-09
2.96419e-09
-4.40374e-09
4.96749e-09
-7.0834e-09
7.06519e-09
-1.04011e-08
9.13319e-09
-1.43239e-08
1.10906e-08
-1.8806e-08
1.28884e-08
-2.37941e-08
1.45e-08
-2.92304e-08
1.59143e-08
-3.50561e-08
1.71309e-08
-4.12131e-08
1.81563e-08
-4.7646e-08
1.90017e-08
-5.43028e-08
1.96807e-08
-6.11354e-08
2.02085e-08
-6.81003e-08
2.06008e-08
-7.51586e-08
2.08728e-08
-8.22754e-08
2.10393e-08
-8.94204e-08
2.1114e-08
-9.65671e-08
2.11095e-08
-1.03693e-07
2.10373e-08
-1.10777e-07
2.09075e-08
-1.17804e-07
2.07292e-08
-1.24759e-07
2.05101e-08
-1.31631e-07
2.02569e-08
-1.38408e-07
1.99756e-08
-1.45084e-07
1.96709e-08
-1.51651e-07
1.93471e-08
-1.58103e-07
1.90076e-08
-1.64436e-07
1.86555e-08
-1.70646e-07
1.82932e-08
-1.7673e-07
1.79228e-08
-1.82686e-07
1.7546e-08
-1.88511e-07
1.71643e-08
-1.94205e-07
1.6779e-08
-1.99767e-07
1.63912e-08
-2.05195e-07
1.60017e-08
-2.10489e-07
1.56115e-08
-2.1565e-07
1.52212e-08
-2.20678e-07
1.48314e-08
-2.25572e-07
1.44426e-08
-2.30334e-07
1.40555e-08
-2.34964e-07
1.36705e-08
-2.39463e-07
1.32879e-08
-2.43832e-07
1.29081e-08
-2.48071e-07
1.25315e-08
-2.52183e-07
1.21584e-08
-2.56169e-07
1.17889e-08
-2.60029e-07
1.14235e-08
-2.63766e-07
1.10621e-08
-2.6738e-07
1.07052e-08
-2.70874e-07
1.03526e-08
-2.74249e-07
1.00047e-08
-2.77507e-07
9.66144e-09
-2.80649e-07
9.32295e-09
-2.83677e-07
8.98924e-09
-2.86592e-07
8.66034e-09
-2.89397e-07
8.33624e-09
-2.92092e-07
8.01691e-09
-2.94681e-07
7.70226e-09
-2.97163e-07
7.39224e-09
-2.99541e-07
7.08676e-09
-3.01816e-07
6.78568e-09
-3.03989e-07
6.48884e-09
-3.06063e-07
6.19607e-09
-3.08037e-07
5.90721e-09
-3.09915e-07
5.62202e-09
-3.11696e-07
5.34024e-09
-3.13381e-07
5.06161e-09
-3.14973e-07
4.78589e-09
-3.16471e-07
4.51275e-09
-3.17876e-07
4.24186e-09
-3.1919e-07
3.97292e-09
-3.20412e-07
3.70561e-09
-3.21543e-07
3.43956e-09
-3.22584e-07
3.17443e-09
-3.23535e-07
2.90985e-09
-3.24395e-07
2.64548e-09
-3.25165e-07
2.38093e-09
-3.25845e-07
2.11581e-09
-3.26434e-07
1.84972e-09
-3.26932e-07
1.58224e-09
-3.27338e-07
1.31294e-09
-3.27651e-07
1.04137e-09
-3.27871e-07
7.67066e-10
-3.27997e-07
4.89549e-10
-3.28026e-07
2.08327e-10
-3.27959e-07
-7.70979e-11
-3.27792e-07
-3.67229e-10
-3.27525e-07
-6.62572e-10
-3.27156e-07
-9.63643e-10
-3.26682e-07
-1.27096e-09
-3.26102e-07
-1.58504e-09
-3.25413e-07
-1.90638e-09
-3.24612e-07
-2.23552e-09
-3.23697e-07
-2.57294e-09
-3.22664e-07
-2.91916e-09
-3.21511e-07
-3.27465e-09
-3.20235e-07
-3.6399e-09
-3.18832e-07
-4.01538e-09
-3.17298e-07
-4.40154e-09
-3.15631e-07
-4.79883e-09
-3.13825e-07
-5.20768e-09
-3.11878e-07
-5.6285e-09
-3.09784e-07
-6.06168e-09
-3.07541e-07
-6.50755e-09
-3.05143e-07
-6.96644e-09
-3.02586e-07
-7.4386e-09
-2.99866e-07
-7.92424e-09
-2.96979e-07
-8.42354e-09
-2.93919e-07
-8.93658e-09
-2.90683e-07
-9.46339e-09
-2.87266e-07
-1.00039e-08
-2.83663e-07
-1.05581e-08
-2.7987e-07
-1.11257e-08
-2.75883e-07
-1.17063e-08
-2.71698e-07
-1.22996e-08
-2.67312e-07
-1.29051e-08
-2.62719e-07
-1.3522e-08
-2.57917e-07
-1.41495e-08
-2.52903e-07
-1.47868e-08
-2.47674e-07
-1.54328e-08
-2.42228e-07
-1.60861e-08
-2.36562e-07
-1.67452e-08
-2.30677e-07
-1.74085e-08
-2.24571e-07
-1.80741e-08
-2.18244e-07
-1.87396e-08
-2.11699e-07
-1.94025e-08
-2.04936e-07
-2.00601e-08
-1.97959e-07
-2.0709e-08
-1.90772e-07
-2.13456e-08
-1.83381e-07
-2.19656e-08
-1.75794e-07
-2.25645e-08
-1.68019e-07
-2.31369e-08
-1.60069e-07
-2.36768e-08
-1.51955e-07
-2.41775e-08
-1.43694e-07
-2.46316e-08
-1.35305e-07
-2.50307e-08
-1.2681e-07
-2.53655e-08
-1.18232e-07
-2.56258e-08
-1.09601e-07
-2.58002e-08
-1.00949e-07
-2.58766e-08
-9.23124e-08
-2.58416e-08
-8.37327e-08
-2.56811e-08
-7.52553e-08
-2.538e-08
-6.69305e-08
-2.49226e-08
-5.88132e-08
-2.42929e-08
-5.09628e-08
-2.3475e-08
-4.34428e-08
-2.24536e-08
-3.63202e-08
-2.1215e-08
-2.96639e-08
-1.97482e-08
-2.35438e-08
-1.80468e-08
-1.80281e-08
-1.61114e-08
-1.31804e-08
-1.39534e-08
-9.05588e-09
-1.16001e-08
-5.69641e-09
-9.10253e-09
-3.12525e-09
-6.54643e-09
-1.34188e-09
-4.06548e-09
-3.18382e-10
-1.86104e-09
-2.55327e-10
-3.55846e-10
4.3528e-10
-1.44284e-09
2.3258e-09
-3.27993e-09
4.80128e-09
-5.87224e-09
7.55979e-09
-9.20771e-09
1.04007e-08
-1.3258e-08
1.31835e-08
-1.7981e-08
1.58137e-08
-2.33245e-08
1.82319e-08
-2.92292e-08
2.04047e-08
-3.56321e-08
2.23172e-08
-4.24689e-08
2.39678e-08
-4.96764e-08
2.53638e-08
-5.71936e-08
2.65189e-08
-6.49632e-08
2.74502e-08
-7.29318e-08
2.81772e-08
-8.10508e-08
2.87198e-08
-8.92764e-08
2.90984e-08
-9.75694e-08
2.93322e-08
-1.05895e-07
2.94396e-08
-1.14223e-07
2.94376e-08
-1.22527e-07
2.93414e-08
-1.30784e-07
2.91649e-08
-1.38976e-07
2.89203e-08
-1.47084e-07
2.86183e-08
-1.55095e-07
2.82683e-08
-1.62998e-07
2.78782e-08
-1.70782e-07
2.74549e-08
-1.78439e-07
2.70043e-08
-1.85962e-07
2.65312e-08
-1.93347e-07
2.60399e-08
-2.00587e-07
2.55338e-08
-2.07681e-07
2.50159e-08
-2.14623e-07
2.44888e-08
-2.21414e-07
2.39545e-08
-2.28049e-07
2.34149e-08
-2.3453e-07
2.28716e-08
-2.40854e-07
2.23258e-08
-2.47021e-07
2.17788e-08
-2.53032e-07
2.12316e-08
-2.58885e-07
2.0685e-08
-2.64583e-07
2.014e-08
-2.70124e-07
1.95971e-08
-2.75511e-07
1.90572e-08
-2.80744e-07
1.85207e-08
-2.85824e-07
1.79883e-08
-2.90753e-07
1.74603e-08
-2.95532e-07
1.69372e-08
-3.00162e-07
1.64194e-08
-3.04646e-07
1.59072e-08
-3.08985e-07
1.54009e-08
-3.1318e-07
1.49007e-08
-3.17234e-07
1.44068e-08
-3.21149e-07
1.39194e-08
-3.24926e-07
1.34387e-08
-3.28568e-07
1.29646e-08
-3.32076e-07
1.24973e-08
-3.35453e-07
1.20368e-08
-3.38699e-07
1.15831e-08
-3.41819e-07
1.1136e-08
-3.44812e-07
1.06956e-08
-3.47681e-07
1.02616e-08
-3.50428e-07
9.83398e-09
-3.53055e-07
9.41252e-09
-3.55563e-07
8.99704e-09
-3.57955e-07
8.58725e-09
-3.6023e-07
8.18289e-09
-3.62392e-07
7.78366e-09
-3.64441e-07
7.38923e-09
-3.66379e-07
6.99924e-09
-3.68206e-07
6.61328e-09
-3.69924e-07
6.23096e-09
-3.71534e-07
5.85185e-09
-3.73037e-07
5.47551e-09
-3.74433e-07
5.10148e-09
-3.75722e-07
4.72927e-09
-3.76906e-07
4.35839e-09
-3.77985e-07
3.98836e-09
-3.78958e-07
3.61865e-09
-3.79826e-07
3.24872e-09
-3.80588e-07
2.87802e-09
-3.81244e-07
2.506e-09
-3.81794e-07
2.13206e-09
-3.82237e-07
1.75561e-09
-3.82571e-07
1.376e-09
-3.82797e-07
9.92617e-10
-3.82912e-07
6.04792e-10
-3.82916e-07
2.11853e-10
-3.82806e-07
-1.86886e-10
-3.82581e-07
-5.92114e-10
-3.82239e-07
-1.00453e-09
-3.81778e-07
-1.42483e-09
-3.81195e-07
-1.85373e-09
-3.80488e-07
-2.29195e-09
-3.79654e-07
-2.74018e-09
-3.78691e-07
-3.19912e-09
-3.77594e-07
-3.66948e-09
-3.76361e-07
-4.15195e-09
-3.74989e-07
-4.64721e-09
-3.73473e-07
-5.15592e-09
-3.71809e-07
-5.67872e-09
-3.69995e-07
-6.21627e-09
-3.68024e-07
-6.76916e-09
-3.65894e-07
-7.33799e-09
-3.63599e-07
-7.9233e-09
-3.61135e-07
-8.52562e-09
-3.58498e-07
-9.14541e-09
-3.55681e-07
-9.7831e-09
-3.5268e-07
-1.0439e-08
-3.49491e-07
-1.11135e-08
-3.46108e-07
-1.18067e-08
-3.42526e-07
-1.25188e-08
-3.38739e-07
-1.32498e-08
-3.34744e-07
-1.39996e-08
-3.30534e-07
-1.4768e-08
-3.26105e-07
-1.55548e-08
-3.21452e-07
-1.63595e-08
-3.1657e-07
-1.71815e-08
-3.11455e-07
-1.802e-08
-3.06102e-07
-1.88742e-08
-3.00509e-07
-1.97429e-08
-2.94671e-07
-2.06248e-08
-2.88585e-07
-2.15184e-08
-2.8225e-07
-2.24218e-08
-2.75662e-07
-2.3333e-08
-2.68821e-07
-2.42496e-08
-2.61726e-07
-2.51688e-08
-2.54378e-07
-2.60877e-08
-2.46778e-07
-2.70026e-08
-2.38928e-07
-2.79096e-08
-2.30833e-07
-2.88041e-08
-2.22498e-07
-2.9681e-08
-2.13929e-07
-3.05346e-08
-2.05135e-07
-3.13583e-08
-1.96127e-07
-3.21448e-08
-1.86918e-07
-3.28858e-08
-1.77524e-07
-3.35721e-08
-1.67962e-07
-3.41934e-08
-1.58254e-07
-3.47383e-08
-1.48426e-07
-3.5194e-08
-1.38505e-07
-3.55465e-08
-1.28524e-07
-3.57807e-08
-1.18521e-07
-3.58798e-08
-1.08537e-07
-3.58261e-08
-9.86174e-08
-3.56005e-08
-8.88144e-08
-3.51829e-08
-7.9184e-08
-3.45529e-08
-6.97875e-08
-3.36894e-08
-6.06907e-08
-3.25719e-08
-5.19634e-08
-3.11809e-08
-4.36788e-08
-2.94996e-08
-3.59124e-08
-2.75146e-08
-2.874e-08
-2.52193e-08
-2.22357e-08
-2.26157e-08
-1.64695e-08
-1.97195e-08
-1.1504e-08
-1.65656e-08
-7.39084e-09
-1.32157e-08
-4.16806e-09
-9.7692e-09
-1.85803e-09
-6.37551e-09
-4.68401e-10
-3.25067e-09
-7.23727e-10
-4.76383e-10
9.11662e-10
-1.86646e-09
3.71587e-09
-4.14546e-09
7.08029e-09
-7.28718e-09
1.07015e-08
-1.12574e-08
1.43709e-08
-1.60124e-08
1.79384e-08
-2.14992e-08
2.13004e-08
-2.76574e-08
2.43901e-08
-3.44217e-08
2.7169e-08
-4.17239e-08
2.96193e-08
-4.94949e-08
3.17388e-08
-5.76671e-08
3.3536e-08
-6.61751e-08
3.50269e-08
-7.49573e-08
3.62324e-08
-8.39562e-08
3.71761e-08
-9.31192e-08
3.78829e-08
-1.02399e-07
3.83778e-08
-1.11751e-07
3.86851e-08
-1.2114e-07
3.8828e-08
-1.3053e-07
3.88278e-08
-1.39893e-07
3.87043e-08
-1.49203e-07
3.84751e-08
-1.58439e-07
3.8156e-08
-1.67582e-07
3.77608e-08
-1.76615e-07
3.73017e-08
-1.85526e-07
3.67891e-08
-1.94303e-07
3.6232e-08
-2.02937e-07
3.5638e-08
-2.11419e-07
3.50139e-08
-2.19745e-07
3.4365e-08
-2.27907e-07
3.36961e-08
-2.35902e-07
3.30111e-08
-2.43727e-07
3.23135e-08
-2.51378e-07
3.16062e-08
-2.58855e-07
3.08914e-08
-2.66155e-07
3.01716e-08
-2.73277e-07
2.94483e-08
-2.80222e-07
2.87232e-08
-2.86988e-07
2.79978e-08
-2.93576e-07
2.72733e-08
-2.99987e-07
2.65508e-08
-3.06221e-07
2.58312e-08
-3.12279e-07
2.51154e-08
-3.18163e-07
2.44043e-08
-3.23873e-07
2.36986e-08
-3.29412e-07
2.29989e-08
-3.34781e-07
2.23057e-08
-3.39981e-07
2.16197e-08
-3.45015e-07
2.09411e-08
-3.49884e-07
2.02704e-08
-3.54591e-07
1.96079e-08
-3.59139e-07
1.89539e-08
-3.63528e-07
1.83086e-08
-3.67761e-07
1.76722e-08
-3.71841e-07
1.70447e-08
-3.7577e-07
1.64262e-08
-3.7955e-07
1.58167e-08
-3.83183e-07
1.52163e-08
-3.86672e-07
1.46248e-08
-3.90018e-07
1.4042e-08
-3.93225e-07
1.34679e-08
-3.96293e-07
1.29023e-08
-3.99225e-07
1.23448e-08
-4.02024e-07
1.17952e-08
-4.0469e-07
1.12532e-08
-4.07225e-07
1.07184e-08
-4.09632e-07
1.01904e-08
-4.11911e-07
9.66869e-09
-4.14065e-07
9.15291e-09
-4.16094e-07
8.64251e-09
-4.18e-07
8.13696e-09
-4.19784e-07
7.63569e-09
-4.21447e-07
7.13813e-09
-4.22989e-07
6.64367e-09
-4.24411e-07
6.15169e-09
-4.25714e-07
5.66153e-09
-4.26898e-07
5.17253e-09
-4.27964e-07
4.68401e-09
-4.2891e-07
4.19525e-09
-4.29738e-07
3.70552e-09
-4.30446e-07
3.21409e-09
-4.31034e-07
2.72016e-09
-4.31501e-07
2.22295e-09
-4.31847e-07
1.72163e-09
-4.3207e-07
1.21538e-09
-4.32168e-07
7.03323e-10
-4.32141e-07
1.84595e-10
-4.31986e-07
-3.417e-10
-4.31702e-07
-8.76458e-10
-4.31286e-07
-1.42059e-09
-4.30736e-07
-1.97501e-09
-4.30049e-07
-2.54064e-09
-4.29222e-07
-3.1184e-09
-4.28253e-07
-3.70923e-09
-4.27138e-07
-4.31403e-09
-4.25874e-07
-4.93372e-09
-4.24457e-07
-5.5692e-09
-4.22883e-07
-6.22136e-09
-4.21148e-07
-6.89106e-09
-4.19247e-07
-7.57916e-09
-4.17177e-07
-8.2865e-09
-4.14932e-07
-9.01386e-09
-4.12508e-07
-9.76201e-09
-4.099e-07
-1.05317e-08
-4.07102e-07
-1.13235e-08
-4.04109e-07
-1.21381e-08
-4.00917e-07
-1.29759e-08
-3.97518e-07
-1.38376e-08
-3.93908e-07
-1.47234e-08
-3.90081e-07
-1.56335e-08
-3.86032e-07
-1.65682e-08
-3.81754e-07
-1.75275e-08
-3.77242e-07
-1.85113e-08
-3.72491e-07
-1.95193e-08
-3.67495e-07
-2.0551e-08
-3.62248e-07
-2.1606e-08
-3.56746e-07
-2.26835e-08
-3.50984e-07
-2.37824e-08
-3.44957e-07
-2.49015e-08
-3.3866e-07
-2.60393e-08
-3.32091e-07
-2.71942e-08
-3.25245e-07
-2.83641e-08
-3.18121e-07
-2.95465e-08
-3.10715e-07
-3.07388e-08
-3.03027e-07
-3.19377e-08
-2.95056e-07
-3.31398e-08
-2.86802e-07
-3.4341e-08
-2.78269e-07
-3.55365e-08
-2.69457e-07
-3.67211e-08
-2.60372e-07
-3.78889e-08
-2.5102e-07
-3.90332e-08
-2.41408e-07
-4.01463e-08
-2.31547e-07
-4.12197e-08
-2.21448e-07
-4.22438e-08
-2.11126e-07
-4.32079e-08
-2.00598e-07
-4.40998e-08
-1.89885e-07
-4.49063e-08
-1.79011e-07
-4.56124e-08
-1.68004e-07
-4.62017e-08
-1.56894e-07
-4.66562e-08
-1.45718e-07
-4.69562e-08
-1.34518e-07
-4.70806e-08
-1.23337e-07
-4.70066e-08
-1.12228e-07
-4.671e-08
-1.01245e-07
-4.61658e-08
-9.04497e-08
-4.53479e-08
-7.99085e-08
-4.42306e-08
-6.96921e-08
-4.27883e-08
-5.98752e-08
-4.09978e-08
-5.05364e-08
-3.88384e-08
-4.17559e-08
-3.62951e-08
-3.36149e-08
-3.33602e-08
-2.61934e-08
-3.00372e-08
-1.95681e-08
-2.63449e-08
-1.38101e-08
-2.23236e-08
-8.98302e-09
-1.80427e-08
-5.14209e-09
-1.36101e-08
-2.33459e-09
-9.18301e-09
-6.03781e-10
-4.98148e-09
-1.32751e-09
-5.85677e-10
1.49734e-09
-2.25756e-09
5.38776e-09
-4.9527e-09
9.77542e-09
-8.61508e-09
1.43639e-08
-1.3188e-08
1.89439e-08
-1.86111e-08
2.33615e-08
-2.48193e-08
2.75086e-08
-3.17434e-08
3.13142e-08
-3.9311e-08
3.47366e-08
-4.74486e-08
3.77569e-08
-5.60826e-08
4.03728e-08
-6.51413e-08
4.25946e-08
-7.45555e-08
4.44412e-08
-8.42602e-08
4.59371e-08
-9.41945e-08
4.71104e-08
-1.04303e-07
4.79909e-08
-1.14534e-07
4.86087e-08
-1.24842e-07
4.89932e-08
-1.35186e-07
4.91723e-08
-1.45531e-07
4.91724e-08
-1.55844e-07
4.90175e-08
-1.66098e-07
4.87294e-08
-1.76269e-07
4.83275e-08
-1.86338e-07
4.7829e-08
-1.96285e-07
4.72492e-08
-2.06097e-07
4.6601e-08
-2.15761e-07
4.58959e-08
-2.25266e-07
4.51435e-08
-2.34605e-07
4.4352e-08
-2.43768e-07
4.35287e-08
-2.52752e-07
4.26794e-08
-2.6155e-07
4.18093e-08
-2.70159e-07
4.09227e-08
-2.78576e-07
4.00234e-08
-2.86799e-07
3.91145e-08
-2.94826e-07
3.81988e-08
-3.02657e-07
3.72787e-08
-3.1029e-07
3.63562e-08
-3.17725e-07
3.54332e-08
-3.24963e-07
3.45113e-08
-3.32004e-07
3.35919e-08
-3.38849e-07
3.26763e-08
-3.45499e-07
3.17657e-08
-3.51956e-07
3.08611e-08
-3.58221e-07
2.99635e-08