/*--------------------------------*- C++ -*----------------------------------*\
  =========                 |
  \\      /  F ield         | OpenFOAM: The Open Source CFD Toolbox
   \\    /   O peration     | Website:  https://openfoam.org
    \\  /    A nd           | Version:  7
     \\/     M anipulation  |
\*---------------------------------------------------------------------------*/
FoamFile
{
    version     2.0;
    format      ascii;
    class       volScalarField;
    location    "0.35";
    object      p;
}
// * * * * * * * * * * * * * * * * * * * * * * * * * * * * * * * * * * * * * //

dimensions      [0 2 -2 0 0 0 0];

internalField   nonuniform List<scalar> 
51200
(
-8.419e-08
-6.38841e-07
3.71214e-07
3.33166e-06
8.03524e-06
1.42449e-05
2.16316e-05
2.99162e-05
3.88446e-05
4.81735e-05
5.7695e-05
6.72419e-05
7.66675e-05
8.58381e-05
9.46379e-05
0.000102976
0.000110774
0.000117952
0.00012444
0.000130185
0.000135141
0.00013927
0.000142548
0.00014495
0.000146457
0.000147055
0.000146725
0.000145452
0.00014322
0.000140015
0.000135833
0.000130673
0.000124543
0.000117452
0.000109412
0.000100434
9.05289e-05
7.97133e-05
6.80028e-05
5.54134e-05
4.19592e-05
2.76536e-05
1.25105e-05
-3.454e-06
-2.02218e-05
-3.77727e-05
-5.60857e-05
-7.51402e-05
-9.49165e-05
-0.000115396
-0.000136558
-0.000158383
-0.000180848
-0.000203933
-0.000227618
-0.000251882
-0.000276703
-0.00030206
-0.000327926
-0.000354277
-0.000381086
-0.000408326
-0.000435975
-0.000464009
-0.000492409
-0.000521152
-0.00055022
-0.000579589
-0.000609236
-0.000639137
-0.000669269
-0.00069961
-0.000730139
-0.000760833
-0.000791671
-0.000822629
-0.000853682
-0.000884807
-0.000915982
-0.000947185
-0.000978396
-0.0010096
-0.00104077
-0.0010719
-0.00110296
-0.00113393
-0.00116479
-0.00119551
-0.00122607
-0.00125645
-0.00128662
-0.00131656
-0.00134623
-0.00137562
-0.0014047
-0.00143346
-0.00146187
-0.00148992
-0.00151758
-0.00154483
-0.00157164
-0.001598
-0.00162388
-0.00164925
-0.00167409
-0.00169838
-0.00172208
-0.00174518
-0.00176766
-0.0017895
-0.00181067
-0.00183117
-0.00185096
-0.00187003
-0.00188835
-0.0019059
-0.00192266
-0.00193861
-0.00195373
-0.00196801
-0.00198143
-0.00199397
-0.00200563
-0.00201638
-0.00202622
-0.00203514
-0.00204312
-0.00205016
-0.00205624
-0.00206136
-0.0020655
-0.00206867
-0.00207088
-0.00207212
-0.0020724
-0.00207174
-0.00207015
-0.00206765
-0.00206427
-0.00206004
-0.00205499
-0.00204916
-0.0020426
-0.00203536
-0.0020275
-0.00201909
-0.00201023
-0.00200102
-0.00199156
-0.00198197
-0.00197241
-0.00196307
-0.00195415
-0.00194586
-0.00193847
-0.00193223
-0.00192744
-0.00192443
-0.00192348
-0.00192425
5.4595e-07
-9.93783e-08
8.87063e-07
3.56874e-06
7.72164e-06
1.30995e-05
1.95018e-05
2.67308e-05
3.45576e-05
4.27622e-05
5.11675e-05
5.96277e-05
6.80021e-05
7.61649e-05
8.40163e-05
9.14676e-05
9.843e-05
0.000104824
0.000110583
0.000115653
0.000119989
0.000123557
0.000126327
0.000128275
0.000129381
0.000129626
0.000128991
0.000127456
0.000125005
0.000121625
0.000117308
0.000112053
0.000105865
9.87525e-05
9.07242e-05
8.179e-05
7.1962e-05
6.1254e-05
4.96803e-05
3.72549e-05
2.39902e-05
9.89835e-06
-5.00798e-06
-2.07139e-05
-3.7202e-05
-5.4453e-05
-7.24473e-05
-9.11663e-05
-0.000110591
-0.000130703
-0.000151483
-0.000172909
-0.000194963
-0.000217624
-0.000240874
-0.000264693
-0.000289062
-0.000313956
-0.000339352
-0.000365223
-0.000391543
-0.000418288
-0.000445432
-0.000472957
-0.000500841
-0.000529065
-0.000557608
-0.000586448
-0.000615563
-0.000644927
-0.00067452
-0.000704319
-0.000734304
-0.000764452
-0.000794741
-0.000825148
-0.00085565
-0.000886222
-0.000916842
-0.00094749
-0.000978147
-0.00100879
-0.00103941
-0.00106998
-0.00110049
-0.00113091
-0.00116122
-0.0011914
-0.00122142
-0.00125125
-0.00128088
-0.00131027
-0.00133941
-0.00136827
-0.00139682
-0.00142506
-0.00145295
-0.00148049
-0.00150764
-0.00153439
-0.00156071
-0.00158659
-0.00161199
-0.0016369
-0.00166128
-0.00168511
-0.00170837
-0.00173105
-0.00175311
-0.00177455
-0.00179534
-0.00181546
-0.0018349
-0.00185363
-0.00187163
-0.00188888
-0.00190536
-0.00192105
-0.00193593
-0.00194999
-0.00196322
-0.0019756
-0.00198712
-0.00199777
-0.00200753
-0.00201641
-0.00202438
-0.00203144
-0.00203758
-0.00204279
-0.00204707
-0.00205042
-0.00205284
-0.00205435
-0.00205494
-0.00205463
-0.00205345
-0.00205141
-0.00204854
-0.00204487
-0.00204044
-0.00203529
-0.00202946
-0.00202301
-0.00201599
-0.00200849
-0.00200058
-0.00199236
-0.00198395
-0.00197546
-0.00196702
-0.00195879
-0.00195097
-0.00194376
-0.00193736
-0.00193196
-0.00192774
-0.0019249
-0.00192381
-0.00192464
-6.01301e-07
-1.25418e-06
-2.64046e-07
2.29808e-06
6.11134e-06
1.09889e-05
1.67782e-05
2.32894e-05
3.03273e-05
3.77177e-05
4.53066e-05
5.29537e-05
6.05309e-05
6.7927e-05
7.50466e-05
8.18011e-05
8.81019e-05
9.38698e-05
9.90429e-05
0.000103569
0.000107404
0.000110512
0.000112866
0.00011444
0.000115213
0.000115163
0.00011427
0.000112513
0.000109875
0.000106343
0.000101908
9.65671e-05
9.03243e-05
8.31854e-05
7.51585e-05
6.62538e-05
5.64829e-05
4.58584e-05
3.43925e-05
2.20975e-05
8.98453e-06
-4.93521e-06
-1.96497e-05
-3.5145e-05
-5.14047e-05
-6.8411e-05
-8.61455e-05
-0.00010459
-0.000123725
-0.000143532
-0.000163994
-0.00018509
-0.000206802
-0.000229111
-0.000252001
-0.000275452
-0.000299444
-0.000323954
-0.000348957
-0.000374427
-0.000400337
-0.000426665
-0.000453387
-0.000480483
-0.000507935
-0.000535722
-0.000563825
-0.00059222
-0.000620887
-0.000649801
-0.00067894
-0.000708283
-0.000737809
-0.000767496
-0.000797324
-0.000827268
-0.000857305
-0.000887412
-0.000917566
-0.000947748
-0.000977937
-0.00100812
-0.00103827
-0.00106837
-0.00109842
-0.00112837
-0.00115822
-0.00118794
-0.0012175
-0.00124687
-0.00127605
-0.00130498
-0.00133367
-0.00136208
-0.00139019
-0.00141799
-0.00144545
-0.00147255
-0.00149928
-0.00152561
-0.00155153
-0.001577
-0.001602
-0.00162652
-0.00165052
-0.00167398
-0.00169687
-0.00171919
-0.00174091
-0.00176202
-0.00178249
-0.00180231
-0.00182145
-0.00183991
-0.00185764
-0.00187465
-0.0018909
-0.00190637
-0.00192106
-0.00193495
-0.00194803
-0.00196028
-0.00197169
-0.00198225
-0.00199196
-0.00200081
-0.00200877
-0.00201586
-0.00202205
-0.00202735
-0.00203175
-0.00203526
-0.00203787
-0.00203959
-0.00204044
-0.00204043
-0.00203958
-0.00203792
-0.00203548
-0.00203227
-0.00202835
-0.00202375
-0.0020185
-0.00201267
-0.00200631
-0.00199952
-0.00199236
-0.00198491
-0.00197729
-0.00196962
-0.001962
-0.00195458
-0.00194753
-0.00194102
-0.00193525
-0.0019304
-0.0019266
-0.00192395
-0.00192279
-0.00192347
-3.74112e-06
-4.07666e-06
-2.86833e-06
-2.9659e-07
3.37113e-06
7.99267e-06
1.34111e-05
1.94463e-05
2.59398e-05
3.27494e-05
3.97359e-05
4.67706e-05
5.37374e-05
6.0535e-05
6.70755e-05
7.32711e-05
7.9034e-05
8.42907e-05
8.89816e-05
9.30541e-05
9.64666e-05
9.91874e-05
0.000101188
0.000102443
0.000102929
0.000102623
0.000101504
9.95506e-05
9.67453e-05
9.30747e-05
8.853e-05
8.31079e-05
7.68098e-05
6.96411e-05
6.16097e-05
5.2725e-05
4.29976e-05
3.24388e-05
2.10599e-05
8.87185e-06
-4.11528e-06
-1.78914e-05
-3.24454e-05
-4.77637e-05
-6.38305e-05
-8.06285e-05
-9.81398e-05
-0.000116347
-0.000135232
-0.000154777
-0.000174965
-0.000195776
-0.000217192
-0.000239198
-0.000261775
-0.000284906
-0.00030857
-0.000332745
-0.000357405
-0.000382523
-0.000408075
-0.000434037
-0.000460389
-0.00048711
-0.000514182
-0.000541586
-0.000569301
-0.000597306
-0.000625578
-0.000654094
-0.000682834
-0.000711775
-0.000740897
-0.00077018
-0.000799601
-0.000829137
-0.000858765
-0.000888461
-0.000918204
-0.000947973
-0.000977751
-0.00100752
-0.00103726
-0.00106696
-0.00109659
-0.00112614
-0.00115558
-0.00118489
-0.00121404
-0.00124302
-0.00127179
-0.00130033
-0.00132861
-0.00135663
-0.00138435
-0.00141176
-0.00143884
-0.00146557
-0.00149193
-0.00151789
-0.00154345
-0.00156857
-0.00159322
-0.0016174
-0.00164106
-0.0016642
-0.00168678
-0.00170879
-0.00173021
-0.00175103
-0.00177123
-0.00179078
-0.00180968
-0.00182789
-0.00184541
-0.0018622
-0.00187825
-0.00189354
-0.00190807
-0.00192182
-0.00193476
-0.00194691
-0.00195823
-0.00196873
-0.0019784
-0.00198722
-0.0019952
-0.00200231
-0.00200856
-0.00201394
-0.00201845
-0.00202209
-0.00202487
-0.00202679
-0.00202786
-0.00202811
-0.00202756
-0.00202622
-0.00202413
-0.00202132
-0.00201782
-0.00201367
-0.00200891
-0.00200359
-0.00199778
-0.00199155
-0.00198497
-0.00197813
-0.00197112
-0.00196406
-0.00195704
-0.0019502
-0.00194368
-0.00193763
-0.0019322
-0.00192758
-0.00192394
-0.0019214
-0.00192012
-0.00192042
-8.57575e-06
-8.27087e-06
-6.68779e-06
-3.95427e-06
-2.73532e-07
4.2264e-06
9.40168e-06
1.51005e-05
2.11921e-05
2.75514e-05
3.40513e-05
4.05767e-05
4.7029e-05
5.3317e-05
5.9355e-05
6.50579e-05
7.03442e-05
7.51448e-05
7.94007e-05
8.30617e-05
8.60904e-05
8.84562e-05
9.01308e-05
9.10887e-05
9.13065e-05
9.07605e-05
8.94269e-05
8.72847e-05
8.4317e-05
8.05109e-05
7.58577e-05
7.03534e-05
6.39987e-05
5.67975e-05
4.87566e-05
3.98852e-05
3.01937e-05
1.96925e-05
8.39134e-06
-3.70055e-06
-1.65741e-05
-3.022e-05
-4.4627e-05
-5.97817e-05
-7.56687e-05
-9.22715e-05
-0.000109574
-0.000127559
-0.00014621
-0.000165509
-0.000185438
-0.000205981
-0.000227119
-0.000248837
-0.000271119
-0.000293947
-0.000317301
-0.000341156
-0.000365489
-0.000390272
-0.000415482
-0.000441096
-0.000467094
-0.000493457
-0.000520167
-0.000547205
-0.00057455
-0.00060218
-0.000630074
-0.000658209
-0.000686565
-0.000715122
-0.000743858
-0.000772753
-0.000801785
-0.000830929
-0.000860164
-0.000889466
-0.000918814
-0.000948188
-0.000977571
-0.00100695
-0.00103629
-0.0010656
-0.00109484
-0.00112399
-0.00115304
-0.00118197
-0.00121073
-0.00123932
-0.0012677
-0.00129586
-0.00132377
-0.00135141
-0.00137876
-0.0014058
-0.00143251
-0.00145888
-0.00148489
-0.00151051
-0.00153572
-0.0015605
-0.00158483
-0.00160868
-0.00163202
-0.00165485
-0.00167713
-0.00169885
-0.00171999
-0.00174054
-0.00176048
-0.00177979
-0.00179845
-0.00181644
-0.00183374
-0.00185034
-0.00186621
-0.00188134
-0.00189571
-0.00190932
-0.00192216
-0.0019342
-0.00194545
-0.0019559
-0.00196553
-0.00197434
-0.00198232
-0.00198947
-0.00199577
-0.00200123
-0.00200585
-0.00200962
-0.00201256
-0.00201467
-0.00201596
-0.00201645
-0.00201617
-0.00201513
-0.00201337
-0.00201092
-0.0020078
-0.00200407
-0.00199975
-0.0019949
-0.00198957
-0.00198383
-0.00197776
-0.00197143
-0.00196492
-0.00195836
-0.00195183
-0.00194546
-0.00193936
-0.00193365
-0.00192846
-0.00192393
-0.00192024
-0.00191755
-0.00191598
-0.00191567
-1.47921e-05
-1.3669e-05
-1.15642e-05
-8.52949e-06
-4.70194e-06
-2.01245e-07
4.85307e-06
1.03429e-05
1.61557e-05
2.21752e-05
2.82924e-05
3.44122e-05
4.04475e-05
4.63118e-05
5.19226e-05
5.71997e-05
6.20687e-05
6.64661e-05
7.03349e-05
7.36285e-05
7.63121e-05
7.8356e-05
7.97331e-05
8.04185e-05
8.03881e-05
7.96172e-05
7.80821e-05
7.57617e-05
7.26391e-05
6.87022e-05
6.39429e-05
5.83572e-05
5.19447e-05
4.47081e-05
3.66537e-05
2.77903e-05
1.8128e-05
7.67613e-06
-3.55699e-06
-1.55635e-05
-2.83353e-05
-4.18631e-05
-5.61358e-05
-7.11401e-05
-8.68613e-05
-0.000103284
-0.000120393
-0.000138173
-0.000156605
-0.000175674
-0.000195362
-0.000215653
-0.000236531
-0.00025798
-0.000279986
-0.00030253
-0.000325591
-0.000349146
-0.000373169
-0.000397635
-0.000422521
-0.000447805
-0.000473469
-0.000499493
-0.000525859
-0.000552549
-0.000579542
-0.000606817
-0.000634351
-0.000662124
-0.000690116
-0.000718307
-0.000746676
-0.000775202
-0.000803862
-0.000832634
-0.000861495
-0.000890422
-0.000919394
-0.000948394
-0.000977401
-0.0010064
-0.00103537
-0.0010643
-0.00109317
-0.00112195
-0.00115063
-0.00117918
-0.00120758
-0.0012358
-0.00126382
-0.00129161
-0.00131916
-0.00134644
-0.00137344
-0.00140013
-0.0014265
-0.00145253
-0.0014782
-0.00150349
-0.00152837
-0.00155284
-0.00157685
-0.0016004
-0.00162345
-0.00164598
-0.00166798
-0.00168943
-0.00171031
-0.0017306
-0.0017503
-0.00176938
-0.00178782
-0.0018056
-0.00182271
-0.00183912
-0.00185482
-0.0018698
-0.00188404
-0.00189753
-0.00191026
-0.00192222
-0.0019334
-0.0019438
-0.0019534
-0.00196221
-0.0019702
-0.00197738
-0.00198375
-0.00198929
-0.00199401
-0.00199791
-0.00200099
-0.00200328
-0.00200477
-0.00200549
-0.00200546
-0.0020047
-0.00200324
-0.00200112
-0.00199835
-0.00199498
-0.00199105
-0.00198661
-0.00198171
-0.00197639
-0.00197075
-0.00196485
-0.00195877
-0.0019526
-0.00194643
-0.00194039
-0.00193456
-0.00192907
-0.00192402
-0.0019195
-0.00191565
-0.00191264
-0.00191057
-0.00190944
-2.21696e-05
-2.00686e-05
-1.73118e-05
-1.38765e-05
-9.80002e-06
-5.18689e-06
-1.3561e-07
5.25976e-06
1.08991e-05
1.66835e-05
2.25249e-05
2.83414e-05
3.40507e-05
3.95718e-05
4.48275e-05
4.97447e-05
5.42568e-05
5.83046e-05
6.18347e-05
6.48053e-05
6.71836e-05
6.89406e-05
7.00506e-05
7.04898e-05
7.02335e-05
6.92563e-05
6.75345e-05
6.50473e-05
6.17787e-05
5.77172e-05
5.28553e-05
4.71893e-05
4.0718e-05
3.34436e-05
2.5372e-05
1.65116e-05
6.87188e-06
-3.53863e-06
-1.47128e-05
-2.66442e-05
-3.93254e-05
-5.27475e-05
-6.68994e-05
-8.17682e-05
-9.73396e-05
-0.000113599
-0.000130532
-0.000148122
-0.000166353
-0.000185209
-0.000204674
-0.000224731
-0.000245368
-0.000266569
-0.000288319
-0.000310599
-0.000333388
-0.000356662
-0.000380396
-0.000404565
-0.000429147
-0.000454122
-0.000479471
-0.000505176
-0.00053122
-0.000557584
-0.000584246
-0.000611186
-0.000638382
-0.000665814
-0.000693463
-0.000721309
-0.000749331
-0.00077751
-0.000805821
-0.000834243
-0.000862751
-0.000891324
-0.000919943
-0.000948588
-0.000977241
-0.00100589
-0.00103451
-0.00106308
-0.0010916
-0.00112003
-0.00114836
-0.00117656
-0.00120461
-0.00123249
-0.00126016
-0.00128761
-0.00131481
-0.00134176
-0.00136842
-0.00139479
-0.00142083
-0.00144654
-0.0014719
-0.00149688
-0.00152146
-0.00154563
-0.00156936
-0.00159262
-0.00161539
-0.00163765
-0.00165939
-0.00168058
-0.00170122
-0.00172128
-0.00174075
-0.00175962
-0.00177786
-0.00179545
-0.00181238
-0.00182862
-0.00184417
-0.00185901
-0.00187313
-0.00188651
-0.00189915
-0.00191103
-0.00192216
-0.00193251
-0.0019421
-0.0019509
-0.00195891
-0.00196613
-0.00197255
-0.00197817
-0.00198298
-0.00198701
-0.00199024
-0.00199268
-0.00199437
-0.00199529
-0.00199549
-0.00199498
-0.00199379
-0.00199196
-0.00198951
-0.00198646
-0.00198287
-0.00197878
-0.00197423
-0.00196928
-0.001964
-0.00195845
-0.0019527
-0.00194683
-0.00194095
-0.00193513
-0.00192946
-0.00192404
-0.00191898
-0.00191436
-0.00191027
-0.00190685
-0.00190412
-0.00190203
-3.04419e-05
-2.72478e-05
-2.37563e-05
-1.98513e-05
-1.54447e-05
-1.06227e-05
-5.47376e-06
-7.6224e-08
5.48598e-06
1.11328e-05
1.6792e-05
2.23903e-05
2.78511e-05
3.31007e-05
3.8068e-05
4.26858e-05
4.68949e-05
5.06417e-05
5.38788e-05
5.65688e-05
5.86799e-05
6.01847e-05
6.10589e-05
6.12785e-05
6.08178e-05
5.96514e-05
5.77565e-05
5.51136e-05
5.17077e-05
4.75277e-05
4.2567e-05
3.68218e-05
3.02911e-05
2.2977e-05
1.48851e-05
6.02356e-06
-3.59902e-06
-1.39752e-05
-2.50991e-05
-3.69655e-05
-4.95676e-05
-6.28965e-05
-7.69408e-05
-9.16875e-05
-0.000107123
-0.000123234
-0.000140005
-0.000157423
-0.00017547
-0.00019413
-0.000213389
-0.000233232
-0.000253647
-0.000274619
-0.000296131
-0.000318167
-0.000340702
-0.000363715
-0.000387179
-0.00041107
-0.000435368
-0.000460054
-0.000485109
-0.000510516
-0.000536259
-0.000562316
-0.000588668
-0.000615294
-0.000642172
-0.000669284
-0.00069661
-0.000724133
-0.000751831
-0.000779683
-0.000807666
-0.000835757
-0.000863933
-0.000892173
-0.000920459
-0.00094877
-0.00097709
-0.0010054
-0.00103369
-0.00106194
-0.00109012
-0.00111823
-0.00114623
-0.0011741
-0.00120182
-0.00122937
-0.00125672
-0.00128384
-0.00131073
-0.00133736
-0.00136371
-0.00138977
-0.00141551
-0.00144092
-0.00146598
-0.00149068
-0.00151498
-0.00153887
-0.00156232
-0.00158532
-0.00160783
-0.00162984
-0.00165133
-0.00167229
-0.00169271
-0.00171255
-0.00173182
-0.00175049
-0.00176854
-0.00178596
-0.00180273
-0.00181882
-0.00183423
-0.00184895
-0.00186295
-0.00187624
-0.0018888
-0.00190061
-0.00191169
-0.00192202
-0.00193158
-0.00194039
-0.00194842
-0.00195568
-0.00196216
-0.00196785
-0.00197276
-0.00197689
-0.00198025
-0.00198285
-0.00198471
-0.00198583
-0.00198624
-0.00198596
-0.00198501
-0.00198343
-0.00198125
-0.00197849
-0.00197519
-0.0019714
-0.00196715
-0.00196251
-0.00195752
-0.00195224
-0.00194674
-0.00194108
-0.00193536
-0.00192968
-0.0019241
-0.00191867
-0.0019135
-0.00190867
-0.00190425
-0.00190035
-0.00189687
-0.00189371
-3.93478e-05
-3.50256e-05
-3.07535e-05
-2.63146e-05
-2.15016e-05
-1.63896e-05
-1.10638e-05
-5.58452e-06
-1.61049e-08
5.57778e-06
1.11345e-05
1.65874e-05
2.18676e-05
2.69085e-05
3.16449e-05
3.60171e-05
3.99733e-05
4.34657e-05
4.64533e-05
4.89027e-05
5.07837e-05
5.20699e-05
5.27374e-05
5.27613e-05
5.21152e-05
5.07751e-05
4.872e-05
4.59325e-05
4.23983e-05
3.81068e-05
3.30515e-05
2.7229e-05
2.06388e-05
1.32839e-05
5.16973e-06
-3.69652e-06
-1.33075e-05
-2.36571e-05
-3.47403e-05
-4.65522e-05
-5.90861e-05
-7.23329e-05
-8.6281e-05
-0.000100918
-0.000116231
-0.000132207
-0.000148833
-0.000166093
-0.000183971
-0.000202452
-0.000221522
-0.000241169
-0.00026138
-0.000282141
-0.000303436
-0.000325244
-0.000347545
-0.000370314
-0.000393527
-0.00041716
-0.000441194
-0.00046561
-0.000490392
-0.000515522
-0.000540982
-0.000566754
-0.000592816
-0.000619147
-0.000645728
-0.00067254
-0.000699565
-0.000726785
-0.000754179
-0.000781724
-0.000809399
-0.000837179
-0.000865043
-0.000892971
-0.000920943
-0.000948942
-0.00097695
-0.00100495
-0.00103293
-0.00106086
-0.00108874
-0.00111654
-0.00114423
-0.00117179
-0.0011992
-0.00122644
-0.00125349
-0.00128031
-0.0013069
-0.00133324
-0.00135929
-0.00138506
-0.00141052
-0.00143565
-0.00146044
-0.00148487
-0.00150891
-0.00153254
-0.00155575
-0.00157849
-0.00160076
-0.00162254
-0.00164381
-0.00166456
-0.00168476
-0.00170441
-0.00172349
-0.00174198
-0.00175986
-0.00177712
-0.00179374
-0.0018097
-0.00182498
-0.00183959
-0.0018535
-0.0018667
-0.00187918
-0.00189094
-0.00190198
-0.00191228
-0.00192184
-0.00193065
-0.00193871
-0.001946
-0.00195254
-0.0019583
-0.0019633
-0.00196754
-0.00197102
-0.00197377
-0.00197578
-0.00197707
-0.00197767
-0.0019776
-0.00197687
-0.00197552
-0.00197356
-0.00197105
-0.001968
-0.00196446
-0.00196046
-0.00195606
-0.0019513
-0.00194624
-0.00194093
-0.00193542
-0.00192979
-0.00192414
-0.00191854
-0.00191304
-0.00190768
-0.00190256
-0.00189773
-0.00189329
-0.00188902
-0.00188474
-4.86842e-05
-4.32346e-05
-3.81489e-05
-3.31202e-05
-2.78422e-05
-2.23819e-05
-1.68152e-05
-1.11836e-05
-5.53494e-06
7.77685e-08
5.59818e-06
1.09673e-05
1.61247e-05
2.10109e-05
2.55684e-05
2.97453e-05
3.3496e-05
3.67783e-05
3.95577e-05
4.1804e-05
4.34886e-05
4.45863e-05
4.50727e-05
4.4922e-05
4.41087e-05
4.26108e-05
4.04093e-05
3.74883e-05
3.38343e-05
2.94374e-05
2.42916e-05
1.83942e-05
1.17456e-05
4.34928e-06
-3.78934e-06
-1.26643e-05
-2.22696e-05
-3.26001e-05
-4.36513e-05
-5.54183e-05
-6.78939e-05
-8.1069e-05
-9.49323e-05
-0.000109472
-0.000124676
-0.000140531
-0.000157025
-0.000174142
-0.000191867
-0.000210186
-0.000229085
-0.000248553
-0.000268578
-0.000289146
-0.000310239
-0.000331839
-0.000353922
-0.000376466
-0.000399446
-0.00042284
-0.000446629
-0.000470796
-0.000495324
-0.000520197
-0.000545395
-0.0005709
-0.000596691
-0.000622749
-0.000649053
-0.000675586
-0.000702331
-0.000729268
-0.000756377
-0.000783635
-0.000811021
-0.000838511
-0.000866084
-0.000893719
-0.000921399
-0.000949105
-0.00097682
-0.00100453
-0.00103222
-0.00105986
-0.00108745
-0.00111496
-0.00114236
-0.00116963
-0.00119676
-0.00122371
-0.00125047
-0.00127702
-0.00130333
-0.00132938
-0.00135517
-0.00138067
-0.00140586
-0.00143074
-0.00145528
-0.00147945
-0.00150325
-0.00152665
-0.00154961
-0.00157213
-0.00159418
-0.00161575
-0.00163681
-0.00165736
-0.00167737
-0.00169684
-0.00171575
-0.00173407
-0.0017518
-0.00176892
-0.0017854
-0.00180124
-0.00181642
-0.00183092
-0.00184474
-0.00185787
-0.00187029
-0.00188201
-0.00189301
-0.00190329
-0.00191285
-0.00192167
-0.00192975
-0.00193709
-0.00194368
-0.00194952
-0.0019546
-0.00195894
-0.00196254
-0.00196541
-0.00196756
-0.00196901
-0.00196978
-0.00196989
-0.00196936
-0.0019682
-0.00196645
-0.00196414
-0.0019613
-0.00195796
-0.00195415
-0.00194993
-0.00194535
-0.00194046
-0.00193529
-0.00192989
-0.00192429
-0.0019186
-0.00191289
-0.00190724
-0.00190163
-0.00189616
-0.00189087
-0.00188585
-0.00188076
-0.00187534
-5.82737e-05
-5.17007e-05
-4.57817e-05
-4.01335e-05
-3.43532e-05
-2.85007e-05
-2.26362e-05
-1.67896e-05
-1.09989e-05
-5.30982e-06
2.28239e-07
5.56561e-06
1.06506e-05
1.54306e-05
1.98562e-05
2.38835e-05
2.7472e-05
3.05855e-05
3.31947e-05
3.52719e-05
3.67904e-05
3.77262e-05
3.80544e-05
3.77494e-05
3.67872e-05
3.5147e-05
3.28116e-05
2.97667e-05
2.60003e-05
2.15038e-05
1.62718e-05
1.03022e-05
3.59628e-06
-3.8417e-06
-1.20067e-05
-2.08939e-05
-3.04987e-05
-4.0817e-05
-5.18445e-05
-6.35757e-05
-7.60028e-05
-8.91165e-05
-0.000102906
-0.00011736
-0.000132468
-0.000148216
-0.000164592
-0.000181581
-0.000199168
-0.00021734
-0.000236084
-0.000255391
-0.000275247
-0.000295639
-0.00031655
-0.000337958
-0.000359842
-0.000382178
-0.000404943
-0.000428116
-0.000451679
-0.000475616
-0.00049991
-0.000524544
-0.0005495
-0.000574757
-0.000600298
-0.000626101
-0.000652149
-0.000678424
-0.000704908
-0.000731583
-0.000758427
-0.000785419
-0.000812536
-0.000839755
-0.000867056
-0.000894419
-0.000921826
-0.000949259
-0.000976702
-0.00100414
-0.00103156
-0.00105893
-0.00108625
-0.00111349
-0.00114062
-0.00116763
-0.00119449
-0.00122117
-0.00124767
-0.00127395
-0.0013
-0.0013258
-0.00135133
-0.00137659
-0.00140154
-0.00142617
-0.00145048
-0.00147443
-0.001498
-0.00152117
-0.00154393
-0.00156624
-0.00158808
-0.00160945
-0.00163033
-0.00165069
-0.00167053
-0.00168984
-0.00170859
-0.00172677
-0.00174436
-0.00176135
-0.00177771
-0.00179344
-0.00180851
-0.00182293
-0.00183667
-0.00184974
-0.00186211
-0.00187379
-0.00188477
-0.00189504
-0.0019046
-0.00191343
-0.00192154
-0.00192892
-0.00193556
-0.00194147
-0.00194664
-0.00195107
-0.00195477
-0.00195776
-0.00196004
-0.00196163
-0.00196255
-0.00196282
-0.00196246
-0.00196148
-0.00195991
-0.00195777
-0.00195511
-0.00195193
-0.00194827
-0.00194419
-0.00193972
-0.00193491
-0.00192983
-0.00192448
-0.00191889
-0.0019131
-0.00190725
-0.00190137
-0.00189547
-0.00188959
-0.00188381
-0.00187815
-0.00187224
-0.00186569
-6.79519e-05
-6.0269e-05
-5.35146e-05
-4.72333e-05
-4.0925e-05
-3.46406e-05
-2.84313e-05
-2.23219e-05
-1.63427e-05
-1.05319e-05
-4.93069e-06
4.2014e-07
5.47635e-06
1.01927e-05
1.45283e-05
1.84468e-05
2.19122e-05
2.48943e-05
2.73677e-05
2.93071e-05
3.06877e-05
3.14858e-05
3.16764e-05
3.12349e-05
3.01393e-05
2.83707e-05
2.59133e-05
2.27541e-05
1.88828e-05
1.42922e-05
8.97788e-06
2.93881e-06
-3.82279e-06
-1.13024e-05
-1.94954e-05
-2.83984e-05
-3.80081e-05
-4.83211e-05
-5.9333e-05
-7.1037e-05
-8.34248e-05
-9.64871e-05
-0.000110214
-0.000124595
-0.000139618
-0.000155272
-0.000171543
-0.000188418
-0.000205882
-0.000223923
-0.00024253
-0.000261692
-0.000281397
-0.00030163
-0.000322374
-0.000343608
-0.00036531
-0.000387455
-0.000410023
-0.000432994
-0.00045635
-0.000480075
-0.000504154
-0.000528569
-0.0005533
-0.00057833
-0.000603638
-0.000629207
-0.000655018
-0.000681055
-0.0007073
-0.000733732
-0.000760332
-0.000787077
-0.000813944
-0.000840912
-0.000867961
-0.000895071
-0.000922225
-0.000949405
-0.000976596
-0.00100378
-0.00103095
-0.00105807
-0.00108514
-0.00111213
-0.00113901
-0.00116577
-0.00119238
-0.00121882
-0.00124507
-0.00127111
-0.00129692
-0.00132248
-0.00134778
-0.00137281
-0.00139754
-0.00142195
-0.00144604
-0.00146978
-0.00149315
-0.00151612
-0.00153867
-0.00156079
-0.00158245
-0.00160364
-0.00162435
-0.00164455
-0.00166423
-0.00168339
-0.001702
-0.00172005
-0.00173752
-0.00175439
-0.00177065
-0.00178628
-0.00180127
-0.00181561
-0.00182929
-0.0018423
-0.00185463
-0.00186628
-0.00187724
-0.0018875
-0.00189707
-0.00190592
-0.00191406
-0.00192148
-0.00192817
-0.00193415
-0.00193939
-0.00194391
-0.00194772
-0.00195082
-0.00195321
-0.00195493
-0.00195598
-0.00195639
-0.00195616
-0.00195533
-0.00195391
-0.00195193
-0.0019494
-0.00194637
-0.00194284
-0.00193884
-0.00193444
-0.00192967
-0.00192459
-0.00191924
-0.00191361
-0.00190773
-0.00190169
-0.00189553
-0.00188928
-0.00188297
-0.00187665
-0.00187036
-0.00186361
-0.00185595
-7.75728e-05
-6.88074e-05
-6.12273e-05
-5.43037e-05
-4.74471e-05
-4.07003e-05
-3.41138e-05
-2.7708e-05
-2.15052e-05
-1.55363e-05
-9.83412e-06
-4.43237e-06
6.3207e-07
5.32223e-06
9.60575e-06
1.3452e-05
1.68302e-05
1.97152e-05
2.20846e-05
2.39147e-05
2.51822e-05
2.58631e-05
2.59335e-05
2.53709e-05
2.41561e-05
2.22719e-05
1.97037e-05
1.64395e-05
1.24704e-05
7.79075e-06
2.39807e-06
-3.70763e-06
-1.05235e-05
-1.80451e-05
-2.62689e-05
-3.51921e-05
-4.48124e-05
-5.51266e-05
-6.61296e-05
-7.78141e-05
-9.01711e-05
-0.000103192
-0.000116867
-0.000131186
-0.000146138
-0.00016171
-0.00017789
-0.000194664
-0.000212019
-0.000229944
-0.000248429
-0.000267463
-0.000287034
-0.000307126
-0.000327721
-0.000348797
-0.000370333
-0.000392305
-0.000414694
-0.00043748
-0.000460647
-0.00048418
-0.000508062
-0.000532276
-0.000556802
-0.000581622
-0.000606717
-0.000632071
-0.000657665
-0.000683484
-0.000709509
-0.000735719
-0.000762093
-0.00078861
-0.000815247
-0.000841983
-0.000868799
-0.000895676
-0.000922596
-0.000949543
-0.000976502
-0.00100346
-0.00103039
-0.00105728
-0.00108412
-0.00111088
-0.00113753
-0.00116406
-0.00119045
-0.00121666
-0.00124268
-0.0012685
-0.00129409
-0.00131943
-0.00134452
-0.00136933
-0.00139385
-0.00141807
-0.00144196
-0.00146551
-0.00148869
-0.00151148
-0.00153385
-0.0015558
-0.00157729
-0.00159832
-0.00161887
-0.00163892
-0.00165846
-0.00167749
-0.00169597
-0.0017139
-0.00173126
-0.00174804
-0.0017642
-0.00177975
-0.00179467
-0.00180895
-0.00182257
-0.00183554
-0.00184784
-0.00185946
-0.00187041
-0.00188068
-0.00189025
-0.00189912
-0.00190729
-0.00191475
-0.00192151
-0.00192754
-0.00193286
-0.00193747
-0.00194137
-0.00194456
-0.00194707
-0.00194889
-0.00195006
-0.00195059
-0.00195049
-0.00194978
-0.00194848
-0.00194662
-0.0019442
-0.00194127
-0.00193784
-0.00193392
-0.00192955
-0.00192477
-0.00191966
-0.00191423
-0.00190852
-0.0019025
-0.00189625
-0.00188979
-0.00188316
-0.00187639
-0.00186952
-0.00186258
-0.00185501
-0.00184627
-8.70081e-05
-7.71956e-05
-6.87997e-05
-6.12319e-05
-5.3816e-05
-4.65902e-05
-3.96071e-05
-3.28813e-05
-2.64286e-05
-2.02731e-05
-1.444e-05
-8.95598e-06
-3.8504e-06
8.47906e-07
5.11367e-06
8.92104e-06
1.22445e-05
1.5063e-05
1.73558e-05
1.91008e-05
2.02757e-05
2.08574e-05
2.08235e-05
2.01545e-05
1.88334e-05
1.68447e-05
1.41751e-05
1.08137e-05
6.7533e-06
1.99001e-06
-3.47717e-06
-9.64702e-06
-1.65163e-05
-2.40813e-05
-3.23388e-05
-4.1287e-05
-5.09235e-05
-6.12449e-05
-7.22455e-05
-8.39173e-05
-9.62517e-05
-0.00010924
-0.000122874
-0.000137143
-0.000152035
-0.000167539
-0.00018364
-0.000200326
-0.000217587
-0.000235412
-0.00025379
-0.000272713
-0.000292166
-0.000312133
-0.000332595
-0.00035353
-0.000374917
-0.000396733
-0.000418959
-0.000441578
-0.000464575
-0.000487933
-0.000511637
-0.000535668
-0.000560008
-0.000584637
-0.000609539
-0.000634696
-0.000660094
-0.000685714
-0.000711537
-0.000737544
-0.000763712
-0.00079002
-0.000816445
-0.000842969
-0.000869571
-0.000896233
-0.000922939
-0.000949672
-0.000976418
-0.00100316
-0.00102988
-0.00105657
-0.00108319
-0.00110974
-0.00113618
-0.0011625
-0.00118867
-0.00121468
-0.0012405
-0.00126611
-0.00129149
-0.00131664
-0.00134153
-0.00136615
-0.00139049
-0.00141453
-0.00143824
-0.00146161
-0.00148462
-0.00150724
-0.00152945
-0.00155124
-0.00157258
-0.00159347
-0.00161388
-0.0016338
-0.00165322
-0.00167213
-0.0016905
-0.00170833
-0.0017256
-0.00174228
-0.00175837
-0.00177385
-0.00178871
-0.00180293
-0.00181651
-0.00182944
-0.00184172
-0.00185333
-0.00186427
-0.00187454
-0.00188413
-0.00189303
-0.00190124
-0.00190874
-0.00191554
-0.00192164
-0.00192703
-0.00193172
-0.0019357
-0.00193899
-0.00194159
-0.00194352
-0.00194479
-0.00194543
-0.00194543
-0.00194483
-0.00194363
-0.00194185
-0.00193951
-0.00193665
-0.00193329
-0.00192942
-0.00192507
-0.00192028
-0.00191509
-0.00190955
-0.00190368
-0.00189749
-0.001891
-0.00188423
-0.00187722
-0.00186997
-0.00186253
-0.00185496
-0.00184657
-0.00183677
-9.61454e-05
-8.53198e-05
-7.61241e-05
-6.79156e-05
-5.9939e-05
-5.22294e-05
-4.48408e-05
-3.77806e-05
-3.10596e-05
-2.46952e-05
-1.87058e-05
-1.31114e-05
-7.93466e-06
-3.19727e-06
1.08109e-06
4.87887e-06
8.17575e-06
1.09535e-05
1.31925e-05
1.48727e-05
1.5973e-05
1.64716e-05
1.63481e-05
1.55856e-05
1.41692e-05
1.20852e-05
9.3219e-06
5.87024e-06
1.72437e-06
-3.11776e-06
-8.65568e-06
-1.48873e-05
-2.18095e-05
-2.94192e-05
-3.77141e-05
-4.66922e-05
-5.63506e-05
-6.66851e-05
-7.76892e-05
-8.93552e-05
-0.000101675
-0.00011464
-0.000128243
-0.000142473
-0.000157318
-0.000172764
-0.0001888
-0.000205413
-0.000222593
-0.000240333
-0.000258621
-0.000277447
-0.000296799
-0.000316657
-0.000337002
-0.000357813
-0.000379066
-0.000400743
-0.000422825
-0.000445295
-0.000468139
-0.000491341
-0.000514884
-0.00053875
-0.000562921
-0.000587378
-0.000612105
-0.000637086
-0.000662306
-0.000687746
-0.000713387
-0.00073921
-0.00076519
-0.000791308
-0.000817541
-0.00084387
-0.000870277
-0.000896744
-0.000923255
-0.000949793
-0.000976345
-0.00100289
-0.00102942
-0.00105591
-0.00108235
-0.0011087
-0.00113495
-0.00116108
-0.00118707
-0.00121288
-0.00123851
-0.00126394
-0.00128914
-0.00131411
-0.00133882
-0.00136327
-0.00138744
-0.00141131
-0.00143487
-0.00145808
-0.00148094
-0.00150341
-0.00152548
-0.00154712
-0.00156833
-0.00158909
-0.00160938
-0.00162918
-0.0016485
-0.0016673
-0.00168558
-0.00170332
-0.0017205
-0.00173712
-0.00175314
-0.00176856
-0.00178337
-0.00179755
-0.0018111
-0.001824
-0.00183626
-0.00184787
-0.00185881
-0.0018691
-0.00187871
-0.00188764
-0.00189588
-0.00190343
-0.00191028
-0.00191644
-0.00192189
-0.00192665
-0.00193072
-0.0019341
-0.00193679
-0.00193881
-0.00194017
-0.00194089
-0.00194099
-0.00194048
-0.00193936
-0.00193765
-0.00193537
-0.00193254
-0.0019292
-0.00192535
-0.00192101
-0.00191618
-0.0019109
-0.00190522
-0.00189918
-0.00189278
-0.00188602
-0.00187892
-0.00187151
-0.00186378
-0.00185579
-0.00184758
-0.00183839