/*--------------------------------*- C++ -*----------------------------------*\
  =========                 |
  \\      /  F ield         | OpenFOAM: The Open Source CFD Toolbox
   \\    /   O peration     | Website:  https://openfoam.org
    \\  /    A nd           | Version:  7
     \\/     M anipulation  |
\*---------------------------------------------------------------------------*/
FoamFile
{
    version     2.0;
    format      ascii;
    class       volVectorField;
    location    "0.35";
    object      U;
}
// * * * * * * * * * * * * * * * * * * * * * * * * * * * * * * * * * * * * * //

dimensions      [0 1 -1 0 0 0 0];

internalField   nonuniform List<vector> 
51200
(
(-1.06879e-08 8.74618e-09 0)
(-5.15233e-08 2.54765e-08 0)
(-1.17506e-07 3.09723e-08 0)
(-1.82162e-07 2.79845e-08 0)
(-2.28333e-07 2.00364e-08 0)
(-2.47206e-07 9.99234e-09 0)
(-2.33739e-07 -1.06608e-09 0)
(-1.85753e-07 -1.25639e-08 0)
(-1.0219e-07 -2.40292e-08 0)
(1.6963e-08 -3.51351e-08 0)
(1.70829e-07 -4.56973e-08 0)
(3.58072e-07 -5.56679e-08 0)
(5.77148e-07 -6.50395e-08 0)
(8.26385e-07 -7.38421e-08 0)
(1.10402e-06 -8.21375e-08 0)
(1.40827e-06 -8.99017e-08 0)
(1.7375e-06 -9.70644e-08 0)
(2.09001e-06 -1.0363e-07 0)
(2.464e-06 -1.09643e-07 0)
(2.85767e-06 -1.15126e-07 0)
(3.26934e-06 -1.20113e-07 0)
(3.69737e-06 -1.2463e-07 0)
(4.14017e-06 -1.28674e-07 0)
(4.59624e-06 -1.32256e-07 0)
(5.06411e-06 -1.35409e-07 0)
(5.54235e-06 -1.38162e-07 0)
(6.02963e-06 -1.40526e-07 0)
(6.52468e-06 -1.42506e-07 0)
(7.02624e-06 -1.44112e-07 0)
(7.53307e-06 -1.45363e-07 0)
(8.04394e-06 -1.46287e-07 0)
(8.55767e-06 -1.4691e-07 0)
(9.07319e-06 -1.47246e-07 0)
(9.58951e-06 -1.473e-07 0)
(1.01057e-05 -1.47071e-07 0)
(1.06209e-05 -1.46569e-07 0)
(1.11342e-05 -1.45816e-07 0)
(1.16446e-05 -1.44839e-07 0)
(1.21514e-05 -1.43655e-07 0)
(1.26538e-05 -1.42271e-07 0)
(1.31512e-05 -1.40689e-07 0)
(1.36429e-05 -1.38912e-07 0)
(1.41282e-05 -1.36953e-07 0)
(1.46065e-05 -1.34827e-07 0)
(1.50772e-05 -1.32552e-07 0)
(1.55398e-05 -1.30137e-07 0)
(1.59937e-05 -1.27582e-07 0)
(1.64385e-05 -1.24883e-07 0)
(1.68737e-05 -1.22047e-07 0)
(1.7299e-05 -1.19088e-07 0)
(1.77138e-05 -1.16027e-07 0)
(1.81177e-05 -1.12877e-07 0)
(1.85104e-05 -1.09643e-07 0)
(1.88916e-05 -1.06324e-07 0)
(1.9261e-05 -1.02916e-07 0)
(1.96182e-05 -9.94203e-08 0)
(1.99631e-05 -9.58408e-08 0)
(2.02953e-05 -9.21867e-08 0)
(2.06146e-05 -8.84681e-08 0)
(2.09207e-05 -8.46942e-08 0)
(2.12134e-05 -8.08729e-08 0)
(2.14926e-05 -7.70092e-08 0)
(2.17581e-05 -7.31043e-08 0)
(2.20097e-05 -6.91569e-08 0)
(2.22473e-05 -6.51659e-08 0)
(2.24708e-05 -6.11327e-08 0)
(2.268e-05 -5.70623e-08 0)
(2.28747e-05 -5.29621e-08 0)
(2.30549e-05 -4.88391e-08 0)
(2.32205e-05 -4.46966e-08 0)
(2.33714e-05 -4.05335e-08 0)
(2.35075e-05 -3.63473e-08 0)
(2.36287e-05 -3.2138e-08 0)
(2.37351e-05 -2.79092e-08 0)
(2.38265e-05 -2.36669e-08 0)
(2.39028e-05 -1.94168e-08 0)
(2.39641e-05 -1.51626e-08 0)
(2.40102e-05 -1.09047e-08 0)
(2.40412e-05 -6.64191e-09 0)
(2.40571e-05 -2.37319e-09 0)
(2.40579e-05 1.90081e-09 0)
(2.40437e-05 6.17735e-09 0)
(2.40142e-05 1.04529e-08 0)
(2.39697e-05 1.4725e-08 0)
(2.39101e-05 1.89921e-08 0)
(2.38353e-05 2.32533e-08 0)
(2.37455e-05 2.75063e-08 0)
(2.36407e-05 3.17473e-08 0)
(2.35208e-05 3.59724e-08 0)
(2.3386e-05 4.01792e-08 0)
(2.32364e-05 4.43665e-08 0)
(2.30719e-05 4.85342e-08 0)
(2.28928e-05 5.26813e-08 0)
(2.26991e-05 5.68043e-08 0)
(2.24908e-05 6.08969e-08 0)
(2.22682e-05 6.49529e-08 0)
(2.20313e-05 6.89689e-08 0)
(2.17803e-05 7.29449e-08 0)
(2.15154e-05 7.68821e-08 0)
(2.12366e-05 8.07793e-08 0)
(2.09442e-05 8.4632e-08 0)
(2.06384e-05 8.8434e-08 0)
(2.03193e-05 9.21774e-08 0)
(1.99872e-05 9.58543e-08 0)
(1.96423e-05 9.94574e-08 0)
(1.92848e-05 1.02982e-07 0)
(1.89151e-05 1.06427e-07 0)
(1.85335e-05 1.09788e-07 0)
(1.81402e-05 1.1306e-07 0)
(1.77357e-05 1.16237e-07 0)
(1.73203e-05 1.19311e-07 0)
(1.68944e-05 1.22278e-07 0)
(1.64584e-05 1.25127e-07 0)
(1.60126e-05 1.27852e-07 0)
(1.55577e-05 1.30442e-07 0)
(1.5094e-05 1.32888e-07 0)
(1.46221e-05 1.35181e-07 0)
(1.41426e-05 1.37313e-07 0)
(1.36561e-05 1.39276e-07 0)
(1.31631e-05 1.41062e-07 0)
(1.26644e-05 1.4266e-07 0)
(1.21606e-05 1.44058e-07 0)
(1.16525e-05 1.45241e-07 0)
(1.11408e-05 1.46199e-07 0)
(1.06263e-05 1.46922e-07 0)
(1.01099e-05 1.47404e-07 0)
(9.59251e-06 1.47634e-07 0)
(9.07497e-06 1.47594e-07 0)
(8.55827e-06 1.47262e-07 0)
(8.04345e-06 1.46623e-07 0)
(7.53158e-06 1.45666e-07 0)
(7.02382e-06 1.44383e-07 0)
(6.52134e-06 1.42758e-07 0)
(6.02535e-06 1.40767e-07 0)
(5.53712e-06 1.38388e-07 0)
(5.05798e-06 1.35607e-07 0)
(4.58933e-06 1.32414e-07 0)
(4.13261e-06 1.288e-07 0)
(3.68931e-06 1.24747e-07 0)
(3.26094e-06 1.20225e-07 0)
(2.84906e-06 1.15207e-07 0)
(2.45528e-06 1.09667e-07 0)
(2.08129e-06 1.03587e-07 0)
(1.72881e-06 9.69723e-08 0)
(1.39965e-06 8.98367e-08 0)
(1.09562e-06 8.21534e-08 0)
(8.18496e-07 7.38494e-08 0)
(5.69936e-07 6.49055e-08 0)
(3.51541e-07 5.5395e-08 0)
(1.64986e-07 4.53696e-08 0)
(1.18588e-08 3.48143e-08 0)
(-1.06598e-07 2.37545e-08 0)
(-1.89613e-07 1.2339e-08 0)
(-2.371e-07 8.64015e-10 0)
(-2.50049e-07 -1.01773e-08 0)
(-2.30784e-07 -2.01874e-08 0)
(-1.83586e-07 -2.82777e-08 0)
(-1.16721e-07 -3.25103e-08 0)
(-4.83843e-08 -2.84349e-08 0)
(-8.57082e-09 -1.10026e-08 0)
(-2.73942e-08 4.91892e-08 0)
(-1.10733e-07 1.08107e-07 0)
(-2.25685e-07 1.20137e-07 0)
(-3.23794e-07 9.75371e-08 0)
(-3.72038e-07 5.27922e-08 0)
(-3.50946e-07 -4.71592e-09 0)
(-2.48867e-07 -6.95439e-08 0)
(-5.80696e-08 -1.37773e-07 0)
(2.25575e-07 -2.06831e-07 0)
(6.03062e-07 -2.75103e-07 0)
(1.07322e-06 -3.41511e-07 0)
(1.63361e-06 -4.05349e-07 0)
(2.2809e-06 -4.66263e-07 0)
(3.0111e-06 -5.24077e-07 0)
(3.81999e-06 -5.78676e-07 0)
(4.70334e-06 -6.29907e-07 0)
(5.65671e-06 -6.77623e-07 0)
(6.6754e-06 -7.21821e-07 0)
(7.75466e-06 -7.626e-07 0)
(8.88977e-06 -8.00044e-07 0)
(1.00761e-05 -8.34243e-07 0)
(1.13093e-05 -8.65279e-07 0)
(1.25849e-05 -8.93226e-07 0)
(1.38988e-05 -9.18184e-07 0)
(1.52467e-05 -9.40274e-07 0)
(1.66246e-05 -9.59606e-07 0)
(1.80288e-05 -9.76271e-07 0)
(1.94556e-05 -9.90356e-07 0)
(2.09013e-05 -1.00196e-06 0)
(2.23624e-05 -1.01118e-06 0)
(2.38355e-05 -1.01815e-06 0)
(2.53174e-05 -1.02298e-06 0)
(2.6805e-05 -1.02576e-06 0)
(2.82954e-05 -1.02656e-06 0)
(2.9786e-05 -1.02543e-06 0)
(3.1274e-05 -1.02248e-06 0)
(3.27569e-05 -1.01781e-06 0)
(3.42322e-05 -1.01154e-06 0)
(3.56975e-05 -1.00375e-06 0)
(3.71506e-05 -9.94489e-07 0)
(3.85895e-05 -9.83826e-07 0)
(4.00122e-05 -9.7182e-07 0)
(4.14168e-05 -9.58549e-07 0)
(4.28015e-05 -9.44096e-07 0)
(4.41646e-05 -9.28534e-07 0)
(4.55045e-05 -9.11913e-07 0)
(4.68196e-05 -8.94275e-07 0)
(4.81087e-05 -8.75662e-07 0)
(4.93703e-05 -8.56136e-07 0)
(5.06031e-05 -8.3577e-07 0)
(5.18059e-05 -8.14634e-07 0)
(5.29774e-05 -7.92784e-07 0)
(5.41167e-05 -7.70256e-07 0)
(5.52227e-05 -7.47075e-07 0)
(5.62946e-05 -7.23266e-07 0)
(5.73316e-05 -6.98858e-07 0)
(5.83328e-05 -6.73893e-07 0)
(5.92973e-05 -6.48416e-07 0)
(6.02245e-05 -6.22475e-07 0)
(6.11136e-05 -5.96117e-07 0)
(6.1964e-05 -5.69378e-07 0)
(6.27752e-05 -5.42285e-07 0)
(6.35467e-05 -5.14858e-07 0)
(6.4278e-05 -4.87111e-07 0)
(6.49687e-05 -4.59059e-07 0)
(6.56183e-05 -4.30724e-07 0)
(6.62264e-05 -4.02136e-07 0)
(6.67926e-05 -3.73324e-07 0)
(6.73166e-05 -3.44318e-07 0)
(6.77981e-05 -3.15135e-07 0)
(6.82369e-05 -2.85786e-07 0)
(6.86328e-05 -2.56281e-07 0)
(6.89855e-05 -2.26632e-07 0)
(6.92949e-05 -1.96861e-07 0)
(6.95607e-05 -1.6699e-07 0)
(6.97827e-05 -1.3704e-07 0)
(6.9961e-05 -1.07027e-07 0)
(7.00953e-05 -7.69642e-08 0)
(7.01857e-05 -4.68586e-08 0)
(7.02321e-05 -1.67214e-08 0)
(7.02345e-05 1.34339e-08 0)
(7.01929e-05 4.35922e-08 0)
(7.01073e-05 7.37389e-08 0)
(6.99777e-05 1.03861e-07 0)
(6.98041e-05 1.33945e-07 0)
(6.95866e-05 1.63977e-07 0)
(6.93253e-05 1.93939e-07 0)
(6.90203e-05 2.23811e-07 0)
(6.86717e-05 2.53573e-07 0)
(6.82797e-05 2.83206e-07 0)
(6.78446e-05 3.12699e-07 0)
(6.73666e-05 3.42039e-07 0)
(6.68459e-05 3.71208e-07 0)
(6.62828e-05 4.00184e-07 0)
(6.56775e-05 4.2894e-07 0)
(6.50305e-05 4.57449e-07 0)
(6.43421e-05 4.85689e-07 0)
(6.36128e-05 5.13642e-07 0)
(6.28429e-05 5.4129e-07 0)
(6.2033e-05 5.6861e-07 0)
(6.11837e-05 5.95571e-07 0)
(6.02954e-05 6.22138e-07 0)
(5.93688e-05 6.4827e-07 0)
(5.84045e-05 6.73927e-07 0)
(5.74033e-05 6.99072e-07 0)
(5.63659e-05 7.23671e-07 0)
(5.52931e-05 7.4769e-07 0)
(5.4186e-05 7.71095e-07 0)
(5.30453e-05 7.93845e-07 0)
(5.18722e-05 8.15896e-07 0)
(5.06677e-05 8.372e-07 0)
(4.94329e-05 8.57708e-07 0)
(4.81691e-05 8.77368e-07 0)
(4.68775e-05 8.96123e-07 0)
(4.55595e-05 9.13915e-07 0)
(4.42166e-05 9.30684e-07 0)
(4.28503e-05 9.4637e-07 0)
(4.14623e-05 9.60914e-07 0)
(4.00542e-05 9.74254e-07 0)
(3.8628e-05 9.86323e-07 0)
(3.71855e-05 9.97047e-07 0)
(3.57287e-05 1.00635e-06 0)
(3.42597e-05 1.01416e-06 0)
(3.27808e-05 1.02041e-06 0)
(3.12943e-05 1.02501e-06 0)
(2.98027e-05 1.0279e-06 0)
(2.83086e-05 1.02897e-06 0)
(2.68146e-05 1.02814e-06 0)
(2.53235e-05 1.02532e-06 0)
(2.38383e-05 1.02041e-06 0)
(2.23621e-05 1.01331e-06 0)
(2.08982e-05 1.00394e-06 0)
(1.94498e-05 9.9221e-07 0)
(1.80204e-05 9.7799e-07 0)
(1.66137e-05 9.61173e-07 0)
(1.52333e-05 9.41665e-07 0)
(1.38833e-05 9.19384e-07 0)
(1.25677e-05 8.94244e-07 0)
(1.12906e-05 8.66137e-07 0)
(1.00563e-05 8.34949e-07 0)
(8.86905e-06 8.00575e-07 0)
(7.73335e-06 7.62911e-07 0)
(6.65384e-06 7.21853e-07 0)
(5.63522e-06 6.77365e-07 0)
(4.68215e-06 6.29506e-07 0)
(3.79929e-06 5.78306e-07 0)
(2.99124e-06 5.23659e-07 0)
(2.26242e-06 4.6553e-07 0)
(1.61685e-06 4.04196e-07 0)
(1.05821e-06 3.40092e-07 0)
(5.89814e-07 2.73598e-07 0)
(2.14145e-07 2.05261e-07 0)
(-6.77305e-08 1.36102e-07 0)
(-2.56878e-07 6.78572e-08 0)
(-3.57271e-07 3.22884e-09 0)
(-3.76698e-07 -5.38144e-08 0)
(-3.27278e-07 -9.80381e-08 0)
(-2.27225e-07 -1.21615e-07 0)
(-1.08044e-07 -1.11725e-07 0)
(-2.47785e-08 -5.24579e-08 0)
(-3.19708e-08 1.17395e-07 0)
(-1.21814e-07 2.24203e-07 0)
(-2.30752e-07 2.2857e-07 0)
(-2.99474e-07 1.58927e-07 0)
(-2.87354e-07 3.90277e-08 0)
(-1.69917e-07 -1.13965e-07 0)
(6.99465e-08 -2.86816e-07 0)
(4.43573e-07 -4.69952e-07 0)
(9.57168e-07 -6.56977e-07 0)
(1.61296e-06 -8.43549e-07 0)
(2.41029e-06 -1.02656e-06 0)
(3.3463e-06 -1.2039e-06 0)
(4.41658e-06 -1.37423e-06 0)
(5.61585e-06 -1.53662e-06 0)
(6.93823e-06 -1.69036e-06 0)
(8.37746e-06 -1.83498e-06 0)
(9.92681e-06 -1.97024e-06 0)
(1.15792e-05 -2.09609e-06 0)
(1.33275e-05 -2.21261e-06 0)
(1.51646e-05 -2.31989e-06 0)
(1.70833e-05 -2.4181e-06 0)
(1.90769e-05 -2.50741e-06 0)
(2.11384e-05 -2.58803e-06 0)
(2.32612e-05 -2.66023e-06 0)
(2.54388e-05 -2.72428e-06 0)
(2.76649e-05 -2.78045e-06 0)
(2.99335e-05 -2.82901e-06 0)
(3.22385e-05 -2.8702e-06 0)
(3.45743e-05 -2.90431e-06 0)
(3.69352e-05 -2.93161e-06 0)
(3.93159e-05 -2.95243e-06 0)
(4.17111e-05 -2.96703e-06 0)
(4.41161e-05 -2.97566e-06 0)
(4.65262e-05 -2.97855e-06 0)
(4.8937e-05 -2.97594e-06 0)
(5.1344e-05 -2.96808e-06 0)
(5.37431e-05 -2.95525e-06 0)
(5.61303e-05 -2.93769e-06 0)
(5.85019e-05 -2.91565e-06 0)
(6.08544e-05 -2.88931e-06 0)
(6.31842e-05 -2.85887e-06 0)
(6.54883e-05 -2.82454e-06 0)
(6.77635e-05 -2.78653e-06 0)
(7.00068e-05 -2.74504e-06 0)
(7.22156e-05 -2.70026e-06 0)
(7.43871e-05 -2.65235e-06 0)
(7.65189e-05 -2.60147e-06 0)
(7.86088e-05 -2.54777e-06 0)
(8.06543e-05 -2.49143e-06 0)
(8.26535e-05 -2.43262e-06 0)
(8.46043e-05 -2.37151e-06 0)
(8.65047e-05 -2.30822e-06 0)
(8.83531e-05 -2.24289e-06 0)
(9.0148e-05 -2.17562e-06 0)
(9.18876e-05 -2.10651e-06 0)
(9.35707e-05 -2.03567e-06 0)
(9.51959e-05 -1.96323e-06 0)
(9.67618e-05 -1.8893e-06 0)
(9.82672e-05 -1.814e-06 0)
(9.97109e-05 -1.73742e-06 0)
(0.000101092 -1.65968e-06 0)
(0.00010241 -1.58085e-06 0)
(0.000103663 -1.501e-06 0)
(0.000104851 -1.42019e-06 0)
(0.000105973 -1.3385e-06 0)
(0.000107028 -1.25598e-06 0)
(0.000108017 -1.17272e-06 0)
(0.000108937 -1.08879e-06 0)
(0.000109788 -1.00426e-06 0)
(0.000110571 -9.19187e-07 0)
(0.000111284 -8.33609e-07 0)
(0.000111927 -7.47573e-07 0)
(0.000112501 -6.61126e-07 0)
(0.000113004 -5.74324e-07 0)
(0.000113436 -4.87221e-07 0)
(0.000113797 -3.99869e-07 0)
(0.000114087 -3.12312e-07 0)
(0.000114305 -2.2459e-07 0)
(0.000114452 -1.36741e-07 0)
(0.000114528 -4.88051e-08 0)
(0.000114532 3.9177e-08 0)
(0.000114464 1.27163e-07 0)
(0.000114325 2.15112e-07 0)
(0.000114114 3.02984e-07 0)
(0.000113832 3.90734e-07 0)
(0.000113479 4.78316e-07 0)
(0.000113054 5.65676e-07 0)
(0.000112558 6.52765e-07 0)
(0.000111992 7.39531e-07 0)
(0.000111355 8.25928e-07 0)
(0.000110648 9.11911e-07 0)
(0.000109871 9.97432e-07 0)
(0.000109025 1.08243e-06 0)
(0.00010811 1.16685e-06 0)
(0.000107127 1.25062e-06 0)
(0.000106076 1.33366e-06 0)
(0.000104957 1.41591e-06 0)
(0.000103773 1.4973e-06 0)
(0.000102522 1.57777e-06 0)
(0.000101207 1.65723e-06 0)
(9.98279e-05 1.7356e-06 0)
(9.83856e-05 1.81279e-06 0)
(9.68812e-05 1.88868e-06 0)
(9.53158e-05 1.96318e-06 0)
(9.36907e-05 2.03619e-06 0)
(9.20071e-05 2.10759e-06 0)
(9.02663e-05 2.17728e-06 0)
(8.84699e-05 2.24516e-06 0)
(8.66195e-05 2.31109e-06 0)
(8.47166e-05 2.37494e-06 0)
(8.27631e-05 2.43658e-06 0)
(8.07607e-05 2.49586e-06 0)
(7.87116e-05 2.55264e-06 0)
(7.66178e-05 2.60675e-06 0)
(7.44816e-05 2.65803e-06 0)
(7.23053e-05 2.70632e-06 0)
(7.00916e-05 2.75143e-06 0)
(6.7843e-05 2.79321e-06 0)
(6.55624e-05 2.83145e-06 0)
(6.32528e-05 2.86597e-06 0)
(6.09172e-05 2.89656e-06 0)
(5.85589e-05 2.92302e-06 0)
(5.61813e-05 2.94512e-06 0)
(5.37882e-05 2.96267e-06 0)
(5.13832e-05 2.97543e-06 0)
(4.89704e-05 2.98316e-06 0)
(4.6554e-05 2.98564e-06 0)
(4.41381e-05 2.9826e-06 0)
(4.17275e-05 2.97379e-06 0)
(3.93268e-05 2.95896e-06 0)
(3.6941e-05 2.93784e-06 0)
(3.45753e-05 2.91016e-06 0)
(3.2235e-05 2.87567e-06 0)
(2.99257e-05 2.83408e-06 0)
(2.76531e-05 2.78509e-06 0)
(2.54231e-05 2.72843e-06 0)
(2.32421e-05 2.66387e-06 0)
(2.11163e-05 2.59116e-06 0)
(1.90523e-05 2.51002e-06 0)
(1.70568e-05 2.42019e-06 0)
(1.51364e-05 2.32146e-06 0)
(1.32981e-05 2.21362e-06 0)
(1.15491e-05 2.09651e-06 0)
(9.89657e-06 1.97e-06 0)
(8.34764e-06 1.83413e-06 0)
(6.90914e-06 1.68908e-06 0)
(5.58775e-06 1.53503e-06 0)
(4.39001e-06 1.37223e-06 0)
(3.3219e-06 1.20126e-06 0)
(2.38842e-06 1.02324e-06 0)
(1.59367e-06 8.39735e-07 0)
(9.40484e-07 6.52861e-07 0)
(4.29611e-07 4.65605e-07 0)
(5.88502e-08 2.82289e-07 0)
(-1.7801e-07 1.09444e-07 0)
(-2.92563e-07 -4.32638e-08 0)
(-3.02874e-07 -1.62352e-07 0)
(-2.33411e-07 -2.30297e-07 0)
(-1.22021e-07 -2.24923e-07 0)
(-3.09408e-08 -1.18373e-07 0)
(-2.83852e-08 1.83817e-07 0)
(-9.87203e-08 3.23953e-07 0)
(-1.61376e-07 2.97441e-07 0)
(-1.5476e-07 1.51971e-07 0)
(-3.6946e-08 -7.73678e-08 0)
(2.20183e-07 -3.63311e-07 0)
(6.36667e-07 -6.84842e-07 0)
(1.22571e-06 -1.0264e-06 0)
(1.99479e-06 -1.37676e-06 0)
(2.94724e-06 -1.72777e-06 0)
(4.08278e-06 -2.07364e-06 0)
(5.39843e-06 -2.41028e-06 0)
(6.88932e-06 -2.73482e-06 0)
(8.5493e-06 -3.04512e-06 0)
(1.03713e-05 -3.33968e-06 0)
(1.23474e-05 -3.61751e-06 0)
(1.44692e-05 -3.87806e-06 0)
(1.67277e-05 -4.12112e-06 0)
(1.91138e-05 -4.34663e-06 0)
(2.16184e-05 -4.55466e-06 0)
(2.42322e-05 -4.74543e-06 0)
(2.69462e-05 -4.91922e-06 0)
(2.97516e-05 -5.07641e-06 0)
(3.26394e-05 -5.21744e-06 0)
(3.56011e-05 -5.34279e-06 0)
(3.86283e-05 -5.4529e-06 0)
(4.17131e-05 -5.54825e-06 0)
(4.48473e-05 -5.62933e-06 0)
(4.80233e-05 -5.69666e-06 0)
(5.12337e-05 -5.75079e-06 0)
(5.44712e-05 -5.79228e-06 0)
(5.77289e-05 -5.82161e-06 0)
(6.10002e-05 -5.83925e-06 0)
(6.42789e-05 -5.84567e-06 0)
(6.75589e-05 -5.84135e-06 0)
(7.08342e-05 -5.82677e-06 0)
(7.40992e-05 -5.80243e-06 0)
(7.73486e-05 -5.76879e-06 0)
(8.05772e-05 -5.72629e-06 0)
(8.37803e-05 -5.67532e-06 0)
(8.69531e-05 -5.61629e-06 0)
(9.00912e-05 -5.54959e-06 0)
(9.31905e-05 -5.47564e-06 0)
(9.62468e-05 -5.39482e-06 0)
(9.92565e-05 -5.30747e-06 0)
(0.000102216 -5.21394e-06 0)
(0.000105122 -5.11454e-06 0)
(0.00010797 -5.00958e-06 0)
(0.000110759 -4.89941e-06 0)
(0.000113485 -4.78433e-06 0)
(0.000116146 -4.66464e-06 0)
(0.000118738 -4.54063e-06 0)
(0.000121259 -4.41252e-06 0)
(0.000123708 -4.28055e-06 0)
(0.000126081 -4.14495e-06 0)
(0.000128378 -4.00594e-06 0)
(0.000130596 -3.86376e-06 0)
(0.000132733 -3.71862e-06 0)
(0.000134788 -3.57073e-06 0)
(0.000136759 -3.42031e-06 0)
(0.000138645 -3.26752e-06 0)
(0.000140444 -3.11253e-06 0)
(0.000142155 -2.95548e-06 0)
(0.000143777 -2.79652e-06 0)
(0.00014531 -2.6358e-06 0)
(0.000146751 -2.47344e-06 0)
(0.000148101 -2.30961e-06 0)
(0.000149358 -2.14445e-06 0)
(0.000150521 -1.97806e-06 0)
(0.00015159 -1.81056e-06 0)
(0.000152565 -1.64205e-06 0)
(0.000153444 -1.47263e-06 0)
(0.000154227 -1.30239e-06 0)
(0.000154914 -1.13144e-06 0)
(0.000155505 -9.59895e-07 0)
(0.000155998 -7.87839e-07 0)
(0.000156394 -6.15366e-07 0)
(0.000156693 -4.42557e-07 0)
(0.000156894 -2.69494e-07 0)
(0.000156997 -9.62564e-08 0)
(0.000157003 7.70724e-08 0)
(0.000156911 2.50409e-07 0)
(0.00015672 4.23667e-07 0)
(0.000156433 5.96762e-07 0)
(0.000156047 7.69603e-07 0)
(0.000155564 9.42097e-07 0)
(0.000154984 1.11415e-06 0)
(0.000154307 1.28565e-06 0)
(0.000153533 1.45652e-06 0)
(0.000152663 1.62666e-06 0)
(0.000151697 1.79596e-06 0)
(0.000150637 1.96432e-06 0)
(0.000149481 2.13164e-06 0)
(0.000148231 2.29778e-06 0)
(0.000146889 2.46261e-06 0)
(0.000145453 2.626e-06 0)
(0.000143926 2.78781e-06 0)
(0.000142309 2.94791e-06 0)
(0.000140602 3.10614e-06 0)
(0.000138806 3.26235e-06 0)
(0.000136923 3.41637e-06 0)
(0.000134955 3.56801e-06 0)
(0.000132901 3.71708e-06 0)
(0.000130765 3.86339e-06 0)
(0.000128548 4.00671e-06 0)
(0.00012625 4.14686e-06 0)
(0.000123875 4.28361e-06 0)
(0.000121425 4.41673e-06 0)
(0.000118901 4.54599e-06 0)
(0.000116306 4.67111e-06 0)
(0.000113642 4.79183e-06 0)
(0.000110912 4.90787e-06 0)
(0.000108118 5.01893e-06 0)
(0.000105264 5.12471e-06 0)
(0.000102352 5.22489e-06 0)
(9.93868e-05 5.31916e-06 0)
(9.63704e-05 5.40716e-06 0)
(9.33071e-05 5.48855e-06 0)
(9.02006e-05 5.56298e-06 0)
(8.70549e-05 5.63006e-06 0)
(8.38744e-05 5.68939e-06 0)
(8.06634e-05 5.74059e-06 0)
(7.74268e-05 5.78323e-06 0)
(7.41693e-05 5.81689e-06 0)
(7.08963e-05 5.84116e-06 0)
(6.76131e-05 5.85557e-06 0)
(6.43253e-05 5.85965e-06 0)
(6.10388e-05 5.85292e-06 0)
(5.77598e-05 5.83491e-06 0)
(5.44946e-05 5.80513e-06 0)
(5.125e-05 5.76309e-06 0)
(4.8033e-05 5.70829e-06 0)
(4.48506e-05 5.6402e-06 0)
(4.17104e-05 5.55832e-06 0)
(3.86199e-05 5.46214e-06 0)
(3.55874e-05 5.35114e-06 0)
(3.26209e-05 5.22487e-06 0)
(2.97289e-05 5.08284e-06 0)
(2.69199e-05 4.92462e-06 0)
(2.42029e-05 4.74978e-06 0)
(2.15866e-05 4.55793e-06 0)
(1.90802e-05 4.34881e-06 0)
(1.66928e-05 4.12225e-06 0)
(1.44337e-05 3.87815e-06 0)
(1.23121e-05 3.6165e-06 0)
(1.03367e-05 3.33759e-06 0)
(8.51579e-06 3.04209e-06 0)
(6.85732e-06 2.73095e-06 0)
(5.36858e-06 2.40546e-06 0)
(4.0557e-06 2.06774e-06 0)
(2.92333e-06 1.72095e-06 0)
(1.97425e-06 1.3694e-06 0)
(1.20855e-06 1.0189e-06 0)
(6.22902e-07 6.77315e-07 0)
(2.09904e-07 3.55713e-07 0)
(-4.37066e-08 6.96726e-08 0)
(-1.58492e-07 -1.59205e-07 0)
(-1.63595e-07 -3.02341e-07 0)
(-9.99254e-08 -3.25322e-07 0)
(-2.84085e-08 -1.83604e-07 0)
(-2.04902e-08 2.30538e-07 0)
(-5.40695e-08 3.73713e-07 0)
(-4.12385e-08 2.86858e-07 0)
(7.3916e-08 3.41061e-08 0)
(3.32326e-07 -3.36864e-07 0)
(7.62845e-07 -7.89049e-07 0)
(1.38639e-06 -1.29394e-06 0)
(2.2169e-06 -1.82994e-06 0)
(3.26269e-06 -2.38063e-06 0)
(4.52747e-06 -2.93377e-06 0)
(6.01117e-06 -3.48045e-06 0)
(7.71073e-06 -4.01412e-06 0)
(9.62101e-06 -4.52996e-06 0)
(1.17353e-05 -5.02437e-06 0)
(1.40456e-05 -5.49477e-06 0)
(1.65427e-05 -5.93946e-06 0)
(1.92168e-05 -6.35742e-06 0)
(2.20575e-05 -6.74809e-06 0)
(2.50541e-05 -7.11119e-06 0)
(2.81956e-05 -7.44672e-06 0)
(3.14711e-05 -7.75491e-06 0)
(3.48699e-05 -8.03612e-06 0)
(3.8381e-05 -8.29087e-06 0)
(4.19939e-05 -8.51979e-06 0)
(4.56981e-05 -8.72352e-06 0)
(4.94835e-05 -8.90275e-06 0)
(5.33401e-05 -9.0582e-06 0)
(5.72583e-05 -9.19064e-06 0)
(6.12284e-05 -9.3009e-06 0)
(6.52414e-05 -9.38982e-06 0)
(6.92884e-05 -9.45821e-06 0)
(7.33609e-05 -9.50685e-06 0)
(7.74507e-05 -9.53649e-06 0)
(8.155e-05 -9.54788e-06 0)
(8.56513e-05 -9.54179e-06 0)
(8.97471e-05 -9.51901e-06 0)
(9.38306e-05 -9.4803e-06 0)
(9.78949e-05 -9.4264e-06 0)
(0.000101934 -9.35799e-06 0)
(0.000105941 -9.27571e-06 0)
(0.000109911 -9.18023e-06 0)
(0.000113838 -9.07222e-06 0)
(0.000117717 -8.95232e-06 0)
(0.000121543 -8.82114e-06 0)
(0.000125311 -8.67923e-06 0)
(0.000129016 -8.52715e-06 0)
(0.000132655 -8.36542e-06 0)
(0.000136222 -8.19458e-06 0)
(0.000139715 -8.01516e-06 0)
(0.00014313 -7.82767e-06 0)
(0.000146463 -7.63257e-06 0)
(0.00014971 -7.4303e-06 0)
(0.00015287 -7.22127e-06 0)
(0.000155939 -7.00586e-06 0)
(0.000158914 -6.78446e-06 0)
(0.000161792 -6.55745e-06 0)
(0.000164573 -6.3252e-06 0)
(0.000167252 -6.08807e-06 0)
(0.000169828 -5.8464e-06 0)
(0.0001723 -5.6005e-06 0)
(0.000174664 -5.35067e-06 0)
(0.00017692 -5.09717e-06 0)
(0.000179067 -4.84026e-06 0)
(0.000181102 -4.58017e-06 0)
(0.000183024 -4.31715e-06 0)
(0.000184832 -4.05145e-06 0)
(0.000186525 -3.78329e-06 0)
(0.000188102 -3.5129e-06 0)
(0.000189562 -3.24048e-06 0)
(0.000190903 -2.96619e-06 0)
(0.000192126 -2.69022e-06 0)
(0.000193229 -2.41273e-06 0)
(0.000194212 -2.13389e-06 0)
(0.000195075 -1.85389e-06 0)
(0.000195816 -1.57288e-06 0)
(0.000196435 -1.29101e-06 0)
(0.000196932 -1.00845e-06 0)
(0.000197307 -7.25315e-07 0)
(0.00019756 -4.41759e-07 0)
(0.00019769 -1.57915e-07 0)
(0.000197697 1.26076e-07 0)
(0.000197581 4.10074e-07 0)
(0.000197343 6.93937e-07 0)
(0.000196982 9.7752e-07 0)
(0.000196498 1.26067e-06 0)
(0.000195892 1.54325e-06 0)
(0.000195165 1.82508e-06 0)
(0.000194315 2.10601e-06 0)
(0.000193344 2.38588e-06 0)
(0.000192253 2.66454e-06 0)
(0.000191041 2.9418e-06 0)
(0.000189711 3.21751e-06 0)
(0.000188261 3.49145e-06 0)
(0.000186694 3.76343e-06 0)
(0.000185009 4.03324e-06 0)
(0.000183209 4.30065e-06 0)
(0.000181294 4.56544e-06 0)
(0.000179266 4.82738e-06 0)
(0.000177125 5.08623e-06 0)
(0.000174873 5.34171e-06 0)
(0.000172513 5.59356e-06 0)
(0.000170044 5.84146e-06 0)
(0.00016747 6.0851e-06 0)
(0.000164792 6.32417e-06 0)
(0.000162013 6.55832e-06 0)
(0.000159133 6.78723e-06 0)
(0.000156157 7.01051e-06 0)
(0.000153086 7.2278e-06 0)
(0.000149924 7.43869e-06 0)
(0.000146673 7.64277e-06 0)
(0.000143335 7.83958e-06 0)
(0.000139916 8.02866e-06 0)
(0.000136417 8.20956e-06 0)
(0.000132843 8.38176e-06 0)
(0.000129197 8.54476e-06 0)
(0.000125484 8.69803e-06 0)
(0.000121708 8.84103e-06 0)
(0.000117874 8.97318e-06 0)
(0.000113986 9.09389e-06 0)
(0.000110049 9.20256e-06 0)
(0.00010607 9.29854e-06 0)
(0.000102053 9.38121e-06 0)
(9.80037e-05 9.44989e-06 0)
(9.39292e-05 9.50389e-06 0)
(8.98358e-05 9.54254e-06 0)
(8.57299e-05 9.56509e-06 0)
(8.16188e-05 9.57081e-06 0)
(7.75096e-05 9.55893e-06 0)
(7.34101e-05 9.52869e-06 0)
(6.93282e-05 9.47933e-06 0)
(6.52722e-05 9.41007e-06 0)
(6.12506e-05 9.32013e-06 0)
(5.72722e-05 9.20869e-06 0)
(5.33463e-05 9.07496e-06 0)
(4.94824e-05 8.91816e-06 0)
(4.56902e-05 8.73752e-06 0)
(4.19797e-05 8.5323e-06 0)
(3.83613e-05 8.3018e-06 0)
(3.48454e-05 8.0454e-06 0)
(3.14425e-05 7.76252e-06 0)
(2.81635e-05 7.45262e-06 0)
(2.50193e-05 7.11531e-06 0)
(2.20209e-05 6.75046e-06 0)
(1.91791e-05 6.3581e-06 0)
(1.65045e-05 5.93844e-06 0)
(1.40077e-05 5.492e-06 0)
(1.16984e-05 5.01995e-06 0)
(9.58551e-06 4.52411e-06 0)
(7.67724e-06 4.00691e-06 0)
(5.98049e-06 3.47181e-06 0)
(4.50033e-06 2.92376e-06 0)
(3.23951e-06 2.36955e-06 0)
(2.19762e-06 1.81837e-06 0)
(1.37074e-06 1.28246e-06 0)
(7.50609e-07 7.78074e-07 0)
(3.23542e-07 3.26341e-07 0)
(6.87192e-08 -4.36297e-08 0)
(-4.3775e-08 -2.94041e-07 0)
(-5.52336e-08 -3.77052e-07 0)
(-2.07282e-08 -2.30888e-07 0)
(-1.01527e-08 2.49448e-07 0)
(3.77352e-09 3.54092e-07 0)
(1.11385e-07 1.70426e-07 0)
(3.59071e-07 -2.23021e-07 0)
(7.83714e-07 -7.68042e-07 0)
(1.41294e-06 -1.41881e-06 0)
(2.26689e-06 -2.13961e-06 0)
(3.35938e-06 -2.90271e-06 0)
(4.69869e-06 -3.6867e-06 0)
(6.28844e-06 -4.47529e-06 0)
(8.12842e-06 -5.25619e-06 0)
(1.02155e-05 -6.02006e-06 0)
(1.25443e-05 -6.7598e-06 0)
(1.51076e-05 -7.47017e-06 0)
(1.78965e-05 -8.14738e-06 0)
(2.09009e-05 -8.78882e-06 0)
(2.41099e-05 -9.39281e-06 0)
(2.75117e-05 -9.95829e-06 0)
(3.10944e-05 -1.04847e-05 0)
(3.48457e-05 -1.09719e-05 0)
(3.87531e-05 -1.142e-05 0)
(4.28043e-05 -1.18295e-05 0)
(4.69868e-05 -1.22009e-05 0)
(5.12884e-05 -1.25351e-05 0)
(5.5697e-05 -1.28329e-05 0)
(6.02011e-05 -1.30952e-05 0)
(6.47888e-05 -1.3323e-05 0)
(6.9449e-05 -1.35175e-05 0)
(7.41705e-05 -1.36797e-05 0)
(7.89426e-05 -1.38108e-05 0)
(8.37549e-05 -1.39119e-05 0)
(8.85976e-05 -1.39841e-05 0)
(9.34611e-05 -1.40285e-05 0)
(9.8336e-05 -1.40462e-05 0)
(0.000103213 -1.40384e-05 0)
(0.000108085 -1.4006e-05 0)
(0.000112942 -1.39503e-05 0)
(0.000117776 -1.38722e-05 0)
(0.000122581 -1.37728e-05 0)
(0.000127349 -1.36529e-05 0)
(0.000132072 -1.35137e-05 0)
(0.000136745 -1.33559e-05 0)
(0.000141362 -1.31806e-05 0)
(0.000145915 -1.29887e-05 0)
(0.0001504 -1.27809e-05 0)
(0.000154811 -1.2558e-05 0)
(0.000159143 -1.23209e-05 0)
(0.000163391 -1.20704e-05 0)
(0.000167551 -1.18071e-05 0)
(0.000171617 -1.15319e-05 0)
(0.000175587 -1.12454e-05 0)
(0.000179455 -1.09482e-05 0)
(0.000183219 -1.0641e-05 0)
(0.000186875 -1.03243e-05 0)
(0.00019042 -9.99877e-06 0)
(0.00019385 -9.66489e-06 0)
(0.000197163 -9.32323e-06 0)
(0.000200357 -8.97432e-06 0)
(0.000203427 -8.61864e-06 0)
(0.000206373 -8.25665e-06 0)
(0.000209192 -7.88879e-06 0)
(0.000211882 -7.51545e-06 0)
(0.000214441 -7.13701e-06 0)
(0.000216867 -6.75383e-06 0)
(0.000219159 -6.36629e-06 0)
(0.000221315 -5.97475e-06 0)
(0.000223334 -5.57955e-06 0)
(0.000225215 -5.181e-06 0)
(0.000226956 -4.7794e-06 0)
(0.000228556 -4.37502e-06 0)
(0.000230014 -3.96811e-06 0)
(0.00023133 -3.55893e-06 0)
(0.000232503 -3.14775e-06 0)
(0.000233532 -2.73481e-06 0)
(0.000234416 -2.32036e-06 0)
(0.000235155 -1.90464e-06 0)
(0.000235748 -1.48786e-06 0)
(0.000236196 -1.07023e-06 0)
(0.000236497 -6.51971e-07 0)
(0.000236652 -2.33281e-07 0)
(0.000236661 1.85627e-07 0)
(0.000236523 6.04542e-07 0)
(0.000236239 1.02325e-06 0)
(0.000235809 1.44154e-06 0)
(0.000235232 1.85917e-06 0)
(0.00023451 2.27593e-06 0)
(0.000233642 2.69158e-06 0)
(0.000232629 3.10588e-06 0)
(0.000231471 3.5186e-06 0)
(0.00023017 3.9295e-06 0)
(0.000228725 4.33832e-06 0)
(0.000227138 4.7448e-06 0)
(0.00022541 5.14863e-06 0)
(0.000223541 5.54953e-06 0)
(0.000221533 5.94717e-06 0)
(0.000219387 6.34124e-06 0)
(0.000217104 6.7314e-06 0)
(0.000214685 7.11731e-06 0)
(0.000212133 7.4986e-06 0)
(0.00020945 7.87487e-06 0)
(0.000206636 8.2457e-06 0)
(0.000203694 8.61066e-06 0)
(0.000200626 8.96928e-06 0)
(0.000197435 9.3211e-06 0)
(0.000194123 9.66561e-06 0)
(0.000190692 1.00023e-05 0)
(0.000187146 1.03307e-05 0)
(0.000183488 1.06501e-05 0)
(0.000179721 1.09601e-05 0)
(0.000175849 1.12599e-05 0)
(0.000171874 1.15489e-05 0)
(0.000167802 1.18265e-05 0)
(0.000163635 1.2092e-05 0)
(0.00015938 1.23446e-05 0)
(0.00015504 1.25836e-05 0)
(0.00015062 1.28082e-05 0)
(0.000146125 1.30176e-05 0)
(0.000141561 1.3211e-05 0)
(0.000136934 1.33876e-05 0)
(0.00013225 1.35463e-05 0)
(0.000127515 1.36864e-05 0)
(0.000122736 1.38069e-05 0)
(0.000117919 1.39067e-05 0)
(0.000113072 1.3985e-05 0)
(0.000108203 1.40407e-05 0)
(0.00010332 1.40728e-05 0)
(9.84307e-05 1.40802e-05 0)
(9.35439e-05 1.40617e-05 0)
(8.86688e-05 1.40165e-05 0)
(8.38147e-05 1.39432e-05 0)
(7.89913e-05 1.38409e-05 0)
(7.42086e-05 1.37083e-05 0)
(6.94771e-05 1.35445e-05 0)
(6.48074e-05 1.33482e-05 0)
(6.02107e-05 1.31184e-05 0)
(5.56983e-05 1.28541e-05 0)
(5.12818e-05 1.25541e-05 0)
(4.69733e-05 1.22177e-05 0)
(4.27847e-05 1.18439e-05 0)
(3.87283e-05 1.1432e-05 0)
(3.48163e-05 1.09814e-05 0)
(3.10613e-05 1.04917e-05 0)
(2.74758e-05 9.96267e-06 0)
(2.40721e-05 9.39461e-06 0)
(2.08622e-05 8.7881e-06 0)
(1.78576e-05 8.14418e-06 0)
(1.50693e-05 7.46461e-06 0)
(1.25072e-05 6.75212e-06 0)
(1.018e-05 6.01049e-06 0)
(8.09537e-06 5.24487e-06 0)
(6.25872e-06 4.46234e-06 0)
(4.67309e-06 3.67223e-06 0)
(3.33827e-06 2.88694e-06 0)
(2.25007e-06 2.12332e-06 0)
(1.39965e-06 1.40305e-06 0)
(7.73687e-07 7.5361e-07 0)
(3.52704e-07 2.10641e-07 0)
(1.08099e-07 -1.79814e-07 0)
(2.29687e-09 -3.59432e-07 0)
(-1.05645e-08 -2.50951e-07 0)
(1.05807e-09 2.36326e-07 0)
(6.84489e-08 2.52366e-07 0)
(2.8374e-07 -6.92678e-08 0)
(6.80413e-07 -6.3956e-07 0)
(1.28916e-06 -1.39192e-06 0)
(2.13512e-06 -2.2731e-06 0)
(3.23674e-06 -3.24061e-06 0)
(4.60655e-06 -4.26111e-06 0)
(6.252e-06 -5.30845e-06 0)
(8.17616e-06 -6.36231e-06 0)
(1.03785e-05 -7.40692e-06 0)
(1.28557e-05 -8.43003e-06 0)
(1.56019e-05 -9.42224e-06 0)
(1.86092e-05 -1.03765e-05 0)
(2.18681e-05 -1.12878e-05 0)
(2.53675e-05 -1.21523e-05 0)
(2.90957e-05 -1.29676e-05 0)
(3.30399e-05 -1.3732e-05 0)
(3.7187e-05 -1.44445e-05 0)
(4.15235e-05 -1.51048e-05 0)
(4.60358e-05 -1.5713e-05 0)
(5.071e-05 -1.62694e-05 0)
(5.55325e-05 -1.67747e-05 0)
(6.04895e-05 -1.72299e-05 0)
(6.55678e-05 -1.76359e-05 0)
(7.07541e-05 -1.79939e-05 0)
(7.60353e-05 -1.83052e-05 0)
(8.13987e-05 -1.85713e-05 0)
(8.68317e-05 -1.87935e-05 0)
(9.23224e-05 -1.89735e-05 0)
(9.78589e-05 -1.91126e-05 0)
(0.00010343 -1.92123e-05 0)
(0.000109025 -1.9274e-05 0)
(0.000114633 -1.92992e-05 0)
(0.000120244 -1.92895e-05 0)
(0.000125849 -1.92463e-05 0)
(0.000131436 -1.9171e-05 0)
(0.000136999 -1.90651e-05 0)
(0.000142527 -1.89298e-05 0)
(0.000148014 -1.87665e-05 0)
(0.00015345 -1.85765e-05 0)
(0.000158828 -1.83611e-05 0)
(0.000164141 -1.81215e-05 0)
(0.000169382 -1.7859e-05 0)
(0.000174545 -1.75746e-05 0)
(0.000179623 -1.72695e-05 0)
(0.000184611 -1.69448e-05 0)
(0.000189502 -1.66015e-05 0)
(0.000194292 -1.62406e-05 0)
(0.000198975 -1.58632e-05 0)
(0.000203547 -1.54702e-05 0)
(0.000208003 -1.50624e-05 0)
(0.000212339 -1.46407e-05 0)
(0.00021655 -1.42059e-05 0)
(0.000220634 -1.37589e-05 0)
(0.000224587 -1.33003e-05 0)
(0.000228404 -1.28309e-05 0)
(0.000232084 -1.23515e-05 0)
(0.000235622 -1.18626e-05 0)
(0.000239018 -1.1365e-05 0)
(0.000242266 -1.08592e-05 0)
(0.000245367 -1.03458e-05 0)
(0.000248317 -9.82529e-06 0)
(0.000251114 -9.2982e-06 0)
(0.000253756 -8.76505e-06 0)
(0.000256242 -8.22634e-06 0)
(0.00025857 -7.68253e-06 0)
(0.000260738 -7.13405e-06 0)
(0.000262746 -6.5813e-06 0)
(0.000264591 -6.02466e-06 0)
(0.000266273 -5.4645e-06 0)
(0.000267791 -4.90119e-06 0)