/*--------------------------------*- C++ -*----------------------------------*\
  =========                 |
  \\      /  F ield         | OpenFOAM: The Open Source CFD Toolbox
   \\    /   O peration     | Website:  https://openfoam.org
    \\  /    A nd           | Version:  7
     \\/     M anipulation  |
\*---------------------------------------------------------------------------*/
FoamFile
{
    version     2.0;
    format      ascii;
    class       volScalarField;
    location    "0.375";
    object      p;
}
// * * * * * * * * * * * * * * * * * * * * * * * * * * * * * * * * * * * * * //

dimensions      [0 2 -2 0 0 0 0];

internalField   nonuniform List<scalar> 
12800
(
1.5001e-06
2.96259e-05
-3.5483e-06
-0.000109458
-0.000280391
-0.000506474
-0.000777128
-0.001082
-0.00141165
-0.0017578
-0.00211337
-0.00247225
-0.0028294
-0.00318063
-0.0035225
-0.0038522
-0.00416757
-0.00446694
-0.00474905
-0.00501304
-0.00525833
-0.00548462
-0.00569181
-0.00587998
-0.00604934
-0.00620017
-0.00633288
-0.0064479
-0.00654568
-0.0066267
-0.00669143
-0.00674032
-0.00677382
-0.00679232
-0.00679619
-0.00678573
-0.00676121
-0.00672285
-0.00667083
-0.00660524
-0.00652614
-0.00643354
-0.00632737
-0.00620755
-0.0060739
-0.00592622
-0.00576424
-0.00558765
-0.00539607
-0.0051891
-0.00496629
-0.00472711
-0.00447102
-0.00419739
-0.00390557
-0.00359486
-0.0032645
-0.00291368
-0.00254156
-0.00214723
-0.00172973
-0.00128804
-0.000821123
-0.000327847
0.000192945
0.000742464
0.00132197
0.00193278
0.00257628
0.00325388
0.00396707
0.00471738
0.00550639
0.00633572
0.00720703
0.00812204
0.00908249
0.0100902
0.0111469
0.0122545
0.0134149
0.01463
0.0159015
0.0172314
0.0186215
0.0200736
0.0215896
0.023171
0.0248197
0.0265372
0.0283249
0.0301842
0.0321162
0.0341222
0.0362028
0.0383588
0.0405905
0.0428981
0.0452814
0.04774
0.0502731
0.0528794
0.0555575
0.0583052
0.0611202
0.0639994
0.0669395
0.0699364
0.0729857
0.0760821
0.0792201
0.0823934
0.0855952
0.088818
0.0920539
0.0952943
0.0985302
0.101752
0.104949
0.108113
0.11123
0.114292
0.117285
0.1202
0.123025
0.125748
0.128359
0.130846
0.1332
0.13541
0.137468
0.139365
0.141095
0.14265
0.144026
0.145219
0.146227
0.147049
0.147684
0.148137
0.148409
0.148507
0.148438
0.148211
0.147836
0.147326
0.146694
0.145958
0.145134
0.144243
0.143306
0.142348
0.141395
0.140478
0.13963
0.138888
0.13829
0.137878
0.137692
0.13772
-2.42251e-05
3.02458e-06
-3.18363e-05
-0.000129108
-0.000279891
-0.000477413
-0.000714138
-0.000982045
-0.00127349
-0.00158148
-0.00189979
-0.00222301
-0.00254649
-0.00286627
-0.00317907
-0.00348215
-0.00377333
-0.00405088
-0.00431345
-0.00456004
-0.00478996
-0.00500275
-0.00519815
-0.00537609
-0.00553661
-0.00567987
-0.0058061
-0.0059156
-0.00600868
-0.0060857
-0.006147
-0.00619294
-0.00622387
-0.00624008
-0.00624186
-0.00622943
-0.006203
-0.00616274
-0.00610876
-0.00604112
-0.00595983
-0.00586486
-0.00575612
-0.0056335
-0.00549681
-0.00534581
-0.00518024
-0.00499975
-0.00480399
-0.00459253
-0.00436491
-0.00412063
-0.00385913
-0.00357979
-0.00328197
-0.00296497
-0.00262806
-0.00227043
-0.00189126
-0.00148966
-0.00106468
-0.000615354
-0.000140635
0.000360557
0.000889348
0.00144691
0.00203447
0.0026533
0.00330472
0.00399013
0.00471093
0.00546861
0.00626467
0.00710068
0.00797821
0.00889891
0.00986444
0.0108765
0.0119368
0.0130472
0.0142093
0.015425
0.0166959
0.0180239
0.0194107
0.0208579
0.0223673
0.0239404
0.0255787
0.0272838
0.0290568
0.0308991
0.0328118
0.0347956
0.0368514
0.0389796
0.0411806
0.0434544
0.0458006
0.0482188
0.0507081
0.0532672
0.0558944
0.0585878
0.0613448
0.0641625
0.0670375
0.0699658
0.0729431
0.0759642
0.0790238
0.0821158
0.0852334
0.0883697
0.0915169
0.0946668
0.0978107
0.10094
0.104044
0.107113
0.110138
0.113108
0.116012
0.118839
0.121579
0.124221
0.126755
0.129171
0.131459
0.133611
0.135617
0.137471
0.139165
0.140694
0.142053
0.14324
0.144252
0.145088
0.14575
0.146239
0.146559
0.146717
0.146718
0.146572
0.146289
0.145881
0.145361
0.144745
0.144049
0.143292
0.142495
0.141679
0.14087
0.140093
0.139376
0.13875
0.138245
0.137889
0.137719
0.137746
9.83414e-06
3.8278e-05
3.07162e-06
-8.96002e-05
-0.000228983
-0.000409317
-0.000624519
-0.00086795
-0.00113317
-0.00141417
-0.0017055
-0.00200231
-0.00230036
-0.00259599
-0.00288609
-0.00316808
-0.00343981
-0.00369957
-0.00394599
-0.00417803
-0.0043949
-0.00459607
-0.00478119
-0.00495006
-0.00510263
-0.00523895
-0.00535915
-0.00546343
-0.00555199
-0.00562509
-0.005683
-0.00572599
-0.00575432
-0.00576821
-0.00576787
-0.00575348
-0.0057252
-0.00568314
-0.00562737
-0.0055579
-0.0054747
-0.00537773
-0.00526686
-0.00514196
-0.00500283
-0.0048492
-0.0046808
-0.00449728
-0.00429827
-0.00408335
-0.00385205
-0.00360386
-0.00333823
-0.00305455
-0.00275219
-0.00243044
-0.00208859
-0.00172586
-0.00134142
-0.000934404
-0.000503898
-4.89326e-05
0.000431504
0.000938463
0.00147304
0.00203637
0.00262965
0.00325412
0.00391105
0.00460179
0.00532772
0.00609026
0.00689085
0.007731
0.00861225
0.00953614
0.0105043
0.0115183
0.0125799
0.0136907
0.0148525
0.0160667
0.0173353
0.0186597
0.0200416
0.0214827
0.0229845
0.0245485
0.0261762
0.0278688
0.0296275
0.0314536
0.033348
0.0353115
0.0373448
0.0394481
0.0416219
0.043866
0.04618
0.0485635
0.0510153
0.0535343
0.0561188
0.0587667
0.0614756
0.0642426
0.0670642
0.0699366
0.0728555
0.075816
0.0788127
0.0818398
0.0848908
0.0879588
0.0910363
0.0941154
0.0971879
0.100245
0.103277
0.106275
0.109229
0.112129
0.114964
0.117725
0.120402
0.122984
0.125461
0.127824
0.130064
0.132173
0.134141
0.135963
0.137633
0.139143
0.140492
0.141675
0.142691
0.14354
0.144222
0.144739
0.145097
0.1453
0.145355
0.14527
0.145055
0.144723
0.144286
0.143757
0.143155
0.142495
0.141797
0.141081
0.140369
0.139685
0.139053
0.138498
0.138044
0.137716
0.137548
0.137562
0.000116726
0.000136187
9.53556e-05
1.91531e-06
-0.000133378
-0.000305085
-0.000507826
-0.000735828
-0.000983502
-0.00124562
-0.00151737
-0.00179444
-0.00207298
-0.00234965
-0.0026216
-0.00288638
-0.00314197
-0.00338673
-0.0036193
-0.00383865
-0.00404398
-0.00423472
-0.00441047
-0.00457095
-0.00471606
-0.00484577
-0.00496015
-0.00505929
-0.00514334
-0.00521248
-0.00526692
-0.00530686
-0.00533248
-0.00534396
-0.00534144
-0.00532506
-0.00529492
-0.0052511
-0.00519361
-0.00512243
-0.00503753
-0.0049388
-0.00482612
-0.00469932
-0.00455817
-0.00440242
-0.00423175
-0.00404582
-0.00384425
-0.00362662
-0.00339246
-0.00314126
-0.00287245
-0.00258546
-0.00227963
-0.00195428
-0.00160871
-0.00124214
-0.000853777
-0.000442758
-8.18398e-06
0.000450891
0.000935453
0.00144653
0.00198518
0.00255253
0.00314971
0.00377795
0.00443848
0.00513261
0.00586167
0.00662703
0.0074301
0.00827233
0.00915518
0.0100802
0.0110489
0.0120628
0.0131236
0.0142329
0.0153922
0.0166032
0.0178674
0.0191865
0.0205621
0.0219956
0.0234884
0.0250422
0.0266581
0.0283375
0.0300815
0.0318912
0.0337675
0.0357111
0.0377226
0.0398023
0.0419504
0.0441669
0.0464513
0.0488031
0.0512212
0.0537044
0.056251
0.058859
0.061526
0.064249
0.0670248
0.0698496
0.0727191
0.0756287
0.078573
0.0815464
0.0845425
0.0875547
0.0905757
0.0935978
0.096613
0.0996127
0.102588
0.10553
0.108428
0.111274
0.114057
0.116768
0.119396
0.121932
0.124367
0.126691
0.128896
0.130973
0.132914
0.134714
0.136366
0.137865
0.139207
0.140389
0.14141
0.14227
0.142969
0.14351
0.143896
0.144134
0.14423
0.144192
0.14403
0.143755
0.143378
0.142915
0.14238
0.14179
0.141161
0.140514
0.139867
0.139242
0.13866
0.138142
0.13771
0.137384
0.137192
0.137155
0.000290106
0.000288639
0.000234905
0.000135292
-1.28032e-06
-0.000169801
-0.000365447
-0.000583194
-0.000818195
-0.00106591
-0.00132213
-0.00158304
-0.0018452
-0.00210561
-0.00236168
-0.00261116
-0.00285219
-0.00308321
-0.00330293
-0.00351036
-0.00370473
-0.00388543
-0.00405203
-0.00420426
-0.00434194
-0.00446501
-0.00457345
-0.00466732
-0.00474669
-0.0048117
-0.00486249
-0.00489919
-0.00492194
-0.00493085
-0.00492603
-0.00490755
-0.0048755
-0.00482988
-0.00477067
-0.00469784
-0.0046113
-0.00451094
-0.0043966
-0.00426809
-0.00412517
-0.00396755
-0.00379493
-0.00360695
-0.00340323
-0.00318332
-0.00294677
-0.00269306
-0.00242164
-0.00213192
-0.00182326
-0.001495
-0.00114642
-0.000776789
-0.000385303
2.88736e-05
0.000466622
0.000928868
0.00141657
0.00193073
0.00247238
0.0030426
0.00364252
0.0042733
0.00493616
0.00563236
0.00636318
0.00712996
0.00793405
0.00877684
0.00965977
0.0105843
0.0115519
0.0125641
0.0136224
0.0147284
0.0158836
0.0170896
0.0183479
0.01966
0.0210274
0.0224515
0.0239339
0.0254758
0.0270785
0.0287433
0.0304712
0.0322632
0.0341202
0.0360428
0.0380317
0.0400872
0.0422093
0.0443979
0.0466527
0.0489731
0.051358
0.0538063
0.0563162
0.0588858
0.0615128
0.0641942
0.0669269
0.0697072
0.072531
0.0753936
0.07829
0.0812145
0.0841611
0.0871232
0.0900939
0.0930657
0.0960306
0.0989803
0.101906
0.1048
0.107651
0.110451
0.11319
0.115858
0.118447
0.120946
0.123346
0.125638
0.127815
0.129867
0.131788
0.133571
0.135211
0.136702
0.13804
0.139224
0.140251
0.141121
0.141836
0.142398
0.142811
0.143079
0.14321
0.143211
0.143092
0.142864
0.142538
0.142127
0.141646
0.14111
0.140535
0.139939
0.139339
0.138753
0.138201
0.1377
0.13727
0.136927
0.136689
0.136568
0.000521346
0.000489722
0.000416593
0.000305674
0.000162813
-7.45138e-06
-0.000200804
-0.00041292
-0.000639642
-0.000877048
-0.00112148
-0.00136959
-0.00161836
-0.00186514
-0.0021076
-0.00234373
-0.00257181
-0.00279044
-0.00299842
-0.00319483
-0.00337891
-0.00355009
-0.00370795
-0.00385218
-0.0039826
-0.00409911
-0.00420164
-0.0042902
-0.00436484
-0.00442565
-0.00447269
-0.00450607
-0.00452586
-0.00453213
-0.00452494
-0.00450435
-0.00447036
-0.00442296
-0.00436209
-0.00428769
-0.00419963
-0.00409779
-0.00398198
-0.00385199
-0.00370756
-0.00354839
-0.00337415
-0.0031845
-0.00297903
-0.00275731
-0.00251887
-0.0022632
-0.00198973
-0.0016979
-0.00138707
-0.00105658
-0.000705751
-0.000333836
5.99408e-05
0.0004764
0.000916406
0.00138086
0.00187069
0.00238687
0.00293041
0.00350236
0.00410381
0.00473589
0.00539978
0.0060967
0.00682789
0.00759465
0.00839827
0.00924011
0.0101216
0.011044
0.0120089
0.0130177
0.0140719
0.0151729
0.0163223
0.0175215
0.0187721
0.0200754
0.021433
0.0228462
0.0243164
0.0258448
0.0274328
0.0290815
0.0307919
0.032565
0.0344016
0.0363024
0.0382679
0.0402984
0.042394
0.0445546
0.0467798
0.0490691
0.0514214
0.0538356
0.05631
0.0588428
0.0614316
0.0640737
0.066766
0.0695049
0.0722864
0.075106
0.0779587
0.0808392
0.0837415
0.0866592
0.0895856
0.0925133
0.0954347
0.0983416
0.101226
0.104078
0.10689
0.109652
0.112355
0.11499
0.117546
0.120016
0.122389
0.124658
0.126814
0.128848
0.130755
0.132527
0.134158
0.135645
0.136984
0.138171
0.139206
0.140088
0.140818
0.141399
0.141834
0.142129
0.142289
0.142324
0.14224
0.14205
0.141764
0.141394
0.140954
0.140459
0.139922
0.139361
0.138791
0.138228
0.137689
0.137189
0.136743
0.136367
0.136067
0.135841
0.00080097
0.000732616
0.000634869
0.000508114
0.000354486
0.000178031
-1.73776e-05
-0.000228085
-0.000450562
-0.000681447
-0.000917591
-0.0011561
-0.00139438
-0.0016301
-0.00186121
-0.00208595
-0.00230278
-0.00251045
-0.00270789
-0.00289427
-0.00306888
-0.00323119
-0.0033808
-0.00351743
-0.00364088
-0.00375103
-0.00384778
-0.00393113
-0.00400109
-0.0040577
-0.00410101
-0.00413106
-0.00414788
-0.0041515
-0.00414197
-0.00411928
-0.00408341
-0.0040343
-0.00397187
-0.00389601
-0.0038066
-0.00370347
-0.00358642
-0.0034552
-0.00330955
-0.00314916
-0.00297368
-0.00278276
-0.002576
-0.00235295
-0.00211314
-0.00185605
-0.00158115
-0.00128785
-0.000975531
-0.000643555
-0.000291237
8.21456e-05
0.000477355
0.000895195
0.00133651
0.00180217
0.00229309
0.0028102
0.00335449
0.00392697
0.00452871
0.0051608
0.00582439
0.00652066
0.0072508
0.00801605
0.0088177
0.00965703
0.0105354
0.0114541
0.0124146
0.0134183
0.0144666
0.015561
0.0167028
0.0178936
0.0191347
0.0204275
0.0217735
0.023174
0.0246304
0.0261438
0.0277155
0.0293466
0.0310382
0.0327912
0.0346063
0.0364842
0.0384255
0.0404304
0.0424991
0.0446314
0.0468271
0.0490855
0.0514058
0.0537868
0.0562269
0.0587244
0.061277
0.063882
0.0665365
0.0692371
0.0719797
0.0747601
0.0775735
0.0804146
0.0832777
0.0861566
0.0890445
0.0919345
0.094819
0.0976901
0.10054
0.103359
0.106139
0.108871
0.111546
0.114155
0.116688
0.119136
0.12149
0.123743
0.125884
0.127908
0.129806
0.131573
0.133203
0.13469
0.136032
0.137226
0.13827
0.139164
0.139909
0.140508
0.140963
0.141281
0.141466
0.141528
0.141473
0.141312
0.141056
0.140717
0.140307
0.13984
0.139329
0.138789
0.138234
0.137679
0.137137
0.136623
0.136149
0.135728
0.135353
0.135011
0.00111952
0.00100988
0.000883464
0.000737109
0.000568938
0.000382515
0.000181314
-3.16284e-05
-0.000253354
-0.000481022
-0.000711972
-0.00094375
-0.00117413
-0.00140113
-0.00162298
-0.00183816
-0.00204534
-0.00224344
-0.00243154
-0.00260887
-0.00277484
-0.00292896
-0.0030709
-0.00320038
-0.00331721
-0.00342126
-0.00351246
-0.00359075
-0.00365616
-0.00370867
-0.00374831
-0.00377508
-0.00378898
-0.00379003
-0.00377821
-0.0037535
-0.00371584
-0.00366513
-0.00360126
-0.00352412
-0.00343355
-0.00332934
-0.00321129
-0.00307912
-0.00293256
-0.00277128
-0.00259494
-0.00240317
-0.00219555
-0.00197165
-0.00173099
-0.00147306
-0.00119731
-0.000903175
-0.000590051
-0.000257303
9.57412e-05
0.000469788
0.000865584
0.00128391
0.0017256
0.00219148
0.00268245
0.00319942
0.00374332
0.00431517
0.00491597
0.00554681
0.00620877
0.00690301
0.00763068
0.00839297
0.00919113
0.0100264
0.0109001
0.0118135
0.0127679
0.0137648
0.0148056
0.0158915
0.017024
0.0182045
0.0194343
0.0207149
0.0220476
0.0234337
0.0248745
0.0263712
0.0279251
0.0295371
0.0312084
0.0329399
0.0347323
0.0365862
0.0385023
0.0404809
0.0425221
0.0446258
0.0467917
0.0490194
0.0513079
0.0536563
0.0560631
0.0585264
0.0610443
0.0636142
0.0662332
0.0688979
0.0716047
0.0743494
0.0771272
0.0799331
0.0827615
0.0856064
0.0884613
0.0913193
0.0941729
0.0970145
0.099836
0.102629
0.105385
0.108094
0.110749
0.113339
0.115855
0.11829
0.120632
0.122876
0.125011
0.12703
0.128926
0.130693
0.132326
0.133818
0.135168
0.136371
0.137427
0.138335
0.139095
0.139711
0.140186
0.140523
0.14073
0.140814
0.140782
0.140644
0.14041
0.140093
0.139703
0.139253
0.138756
0.138225
0.137673
0.137114
0.136558
0.136017
0.135504
0.135029
0.134572
0.134111
0.00146822
0.0013142
0.00115607
0.000987112
0.000801291
0.00060174
0.000391595
0.000173328
-5.06398e-05
-0.000277958
-0.000506422
-0.000733986
-0.000958794
-0.00117918
-0.00139368
-0.001601
-0.00180005
-0.0019899
-0.00216979
-0.00233907
-0.00249724
-0.0026439
-0.00277875
-0.00290158
-0.0030122
-0.0031105
-0.00319641
-0.00326988
-0.00333092
-0.0033795
-0.00341559
-0.0034392
-0.00345031
-0.00344889
-0.00343491
-0.0034083
-0.00336897
-0.00331681
-0.00325168
-0.00317345
-0.00308191
-0.00297687
-0.00285808
-0.00272525
-0.00257809
-0.00241628
-0.00223945
-0.00204724
-0.00183922
-0.00161495
-0.00137395
-0.00111572
-0.000839713
-0.000545375
-0.000232109
0.000100706
0.000453728
0.000827649
0.0012232
0.00164114
0.00208228
0.00254742
0.00303742
0.00355318
0.00409559
0.00466563
0.0052643
0.00589261
0.00655165
0.0072425
0.00796628
0.00872417
0.00951733
0.010347
0.0112144
0.0121208
0.0130676
0.014056
0.0150874
0.0161631
0.0172845
0.0184529
0.0196697
0.0209363
0.0222538
0.0236237
0.0250473
0.0265256
0.0280599
0.0296513
0.0313008
0.0330093
0.0347776
0.0366064
0.0384962
0.0404475
0.0424603
0.0445348
0.0466706
0.0488674
0.0511243
0.0534404
0.0558144
0.0582445
0.0607289
0.0632651
0.0658504
0.0684816
0.0711551
0.0738668
0.0766124
0.0793867
0.0821845
0.0849999
0.0878265
0.0906575
0.0934857
0.0963036
0.0991032
0.101876
0.104614
0.107308
0.109948
0.112527
0.115034
0.117462
0.1198
0.122041
0.124176
0.126197
0.128098
0.129871
0.131512
0.133014
0.134375
0.135591
0.136662
0.137585
0.138362
0.138996
0.139488
0.139845
0.14007
0.140172
0.140159
0.140038
0.139821
0.139517
0.139139
0.138698
0.138205
0.137674
0.137115
0.13654
0.13596
0.135385
0.134825
0.134289
0.133747
0.133166
0.00183903
0.00163864
0.0014466
0.00125268
0.00104669
0.000831406
0.000609688
0.000383485
0.00015471
-7.47375e-05
-0.000303074
-0.000528649
-0.000749955
-0.000965642
-0.00117452
-0.00137556
-0.00156789
-0.00175076
-0.00192354
-0.00208574
-0.00223696
-0.00237689
-0.0025053
-0.00262201
-0.00272687
-0.00281981
-0.00290077
-0.00296972
-0.00302663
-0.00307148
-0.00310423
-0.00312485
-0.00313333
-0.00312961
-0.00311363
-0.00308528
-0.00304446
-0.00299103
-0.00292485
-0.00284573
-0.00275348
-0.00264785
-0.00252859
-0.0023954
-0.00224797
-0.00208598
-0.00190906
-0.00171681
-0.00150883
-0.00128466
-0.00104384
-0.000785848
-0.000510167
-0.000216239
9.65151e-05
0.000428704
0.000780972
0.001154
0.00154849
0.00196518
0.00240486
0.00286831
0.00335635
0.00386984
0.00440967
0.00497676
0.00557209
0.00619664
0.00685144
0.00753756
0.00825607
0.00900809
0.00979476
0.0106173
0.0114768
0.0123747
0.013312
0.0142902
0.0153105
0.0163743
0.0174828
0.0186373
0.0198393
0.0210899
0.0223905
0.0237424
0.0251469
0.026605
0.0281181
0.0296871
0.0313132
0.0329972
0.03474
0.0365422
0.0384046
0.0403275
0.0423111
0.0443556
0.0464607
0.0486261
0.0508512
0.0531351
0.0554766
0.0578741
0.0603259
0.0628296
0.0653827
0.0679821
0.0706244
0.0733058
0.0760219
0.0787679
0.0815386
0.0843283
0.0871307
0.0899394
0.0927471
0.0955465
0.0983297
0.101088
0.103814
0.106498
0.109132
0.111705
0.11421
0.116638
0.118978
0.121223
0.123365
0.125394
0.127305
0.129091
0.130745
0.132262
0.133639
0.134872
0.13596
0.136902
0.137698
0.13835
0.138861
0.139235
0.139478
0.139596
0.139597
0.139489
0.139283
0.138988
0.138615
0.138175
0.137679
0.137138
0.136564
0.135967
0.135355
0.134738
0.134125
0.133525
0.132897
0.132199
0.00222468
0.00197668
0.00174918
0.0015285
0.00130035
0.00106722
0.000831761
0.000595431
0.000359674
0.00012597
-0.000104289
-0.000329821
-0.000549456
-0.000762152
-0.000967
-0.00116322
-0.00135014
-0.0015272
-0.00169394
-0.00185
-0.00199511
-0.00212906
-0.00225167
-0.00236282
-0.00246243
-0.00255045
-0.00262685
-0.00269161
-0.0027447
-0.00278608
-0.00281572
-0.0028336
-0.00283967
-0.00283385
-0.00281606
-0.00278618
-0.00274407
-0.0026896
-0.00262258
-0.00254282
-0.00245009
-0.00234415
-0.0022247
-0.00209146
-0.00194411
-0.00178229
-0.00160565
-0.00141379
-0.00120628
-0.000982684
-0.000742526
-0.00048531
-0.000210516
8.23999e-05
0.000394004
0.000724892
0.00107569
0.00144707
0.0018397
0.00225431
0.00269164
0.00315246
0.00363756
0.00414776
0.00468393
0.00524695
0.00583776
0.00645732
0.00710662
0.00778667
0.00849852
0.00924324
0.0100219
0.0108358
0.0116859
0.0125735
0.0134998
0.0144661
0.0154736
0.0165236
0.0176173
0.0187562
0.0199414
0.0211743
0.0224561
0.0237881
0.0251716
0.0266078
0.0280978
0.0296427
0.0312436
0.0329015
0.0346172
0.0363916
0.0382251
0.0401183
0.0420716
0.0440851
0.0461588
0.0482923
0.0504852
0.0527368
0.0550458
0.057411
0.0598307
0.0623027
0.0648247
0.0673937
0.0700066
0.0726597
0.0753487
0.078069
0.0808157
0.0835831
0.0863652
0.0891556
0.0919472
0.0947328
0.0975046
0.100254
0.102974
0.105654
0.108286
0.110861
0.11337
0.115804
0.118153
0.120408
0.122563
0.124607
0.126535
0.128338
0.130011
0.131548
0.132946
0.134201
0.13531
0.136273
0.13709
0.137762
0.138292
0.138684
0.138944
0.139076
0.13909
0.138992
0.138793
0.138502
0.138128
0.137683
0.137178
0.136622
0.136026
0.135399
0.13475
0.134086
0.133417
0.132751
0.132037
0.131226
0.00261857
0.00232225
0.00205821
0.00180942
0.00155757
0.00130492
0.00105395
0.000805671
0.000561107
0.000321342
8.73997e-05
-0.000139783
-0.00035936
-0.00057059
-0.000772835
-0.000965548
-0.00114827
-0.00132063
-0.00148235
-0.0016332
-0.00177303
-0.00190173
-0.00201919
-0.00212538
-0.00222026
-0.00230384
-0.00237611
-0.00243705
-0.00248665
-0.00252488
-0.00255171
-0.00256711
-0.00257102
-0.00256335
-0.00254398
-0.0025128
-0.00246965
-0.00241436
-0.00234675
-0.0022666
-0.00217367
-0.00206769
-0.00194836
-0.00181538
-0.00166843
-0.00150715
-0.00133116
-0.00114008
-0.000933475
-0.000710903
-0.000471897
-0.000215968
5.73936e-05
0.000348717
0.000658556
0.000987491
0.00133614
0.00170513
0.00209514
0.00250685
0.00294098
0.00339826
0.00387946
0.00438537
0.00491682
0.00547468
0.00605983
0.00667319
0.00731572
0.00798839
0.00869222
0.00942822
0.0101975
0.0110011
0.0118402
0.012716
0.0136296
0.0145822
0.0155752
0.0166096
0.0176869
0.0188082
0.0199748
0.021188
0.0224492
0.0237594
0.0251201
0.0265324
0.0279975
0.0295165
0.0310905
0.0327206
0.0344076
0.0361523
0.0379556
0.0398178
0.0417396
0.043721
0.0457622
0.047863
0.0500231
0.0522418
0.0545183
0.0568511
0.059239
0.0616799
0.0641715
0.0667113
0.0692961
0.0719224
0.0745863
0.0772833
0.0800085
0.0827565
0.0855215
0.0882972
0.0910766
0.0938526
0.0966175
0.0993632
0.102081
0.104763
0.1074
0.109982
0.1125
0.114946
0.11731
0.119583
0.121756
0.123822
0.125771
0.127598
0.129296
0.130859
0.132283
0.133563
0.134698
0.135686
0.136527
0.137221
0.137773
0.138184
0.13846
0.138607
0.138632
0.138542
0.138347
0.138056
0.137678
0.137224
0.136704
0.136128
0.135505
0.134844
0.134153
0.133439
0.132711
0.131978
0.131179
0.13026
0.00301466
0.00266965
0.00236837
0.0020905
0.00181377
0.00154028
0.00127237
0.00101066
0.000755768
0.000508421
0.000269296
3.9e-05
-0.000181934
-0.00039305
-0.000593967
-0.000784368
-0.000964008
-0.00113271
-0.00129035
-0.00143688
-0.00157223
-0.0016964
-0.00180938
-0.00191121
-0.00200192
-0.00208155
-0.00215013
-0.00220766
-0.00225415
-0.00228957
-0.00231392
-0.00232715
-0.00232919
-0.00231993
-0.00229926
-0.00226703
-0.00222309
-0.00216725
-0.00209932
-0.00201905
-0.00192618
-0.00182044
-0.00170152
-0.00156912
-0.0014229
-0.00126249
-0.00108753
-0.000897617
-0.000692323
-0.000471212
-0.00023382
2.03311e-05
0.000291737
0.000580913
0.000888398
0.00121476
0.00156059
0.0019265
0.00231314
0.00272117
0.00315127
0.00360414
0.00408053
0.00458118
0.0051069
0.00565852
0.00623688
0.00684287
0.00747741
0.00814143
0.00883588
0.00956179
0.0103202
0.0111121
0.0119386
0.012801
0.0137002
0.0146375
0.0156142
0.0166313
0.0176902
0.0187921
0.0199383
0.02113
0.0223685
0.0236551
0.0249911
0.0263776
0.0278158
0.0293071
0.0308524
0.0324528
0.0341094
0.0358229
0.0375943
0.0394241
0.0413128
0.0432609
0.0452686
0.0473357
0.0494622
0.0516474
0.0538907
0.0561911
0.058547
0.060957
0.0634187
0.0659299
0.0684876
0.0710884
0.0737287
0.0764042
0.0791101
0.0818413
0.0845919
0.0873559
0.0901266
0.0928968
0.0956588
0.0984048
0.101126
0.103815
0.106461
0.109055
0.111589
0.114053
0.116438
0.118734
0.120932
0.123025
0.125003
0.12686
0.128588
0.130182
0.131637
0.132948
0.134113
0.13513
0.135999
0.136719
0.137294
0.137726
0.13802
0.138182
0.138217
0.138135
0.137942
0.137649
0.137264
0.136798
0.136259
0.135659
0.135005
0.134306
0.133571
0.132804
0.132016
0.131215
0.130335
0.129313
0.00340733
0.00301354
0.00267461
0.00236697
0.00206449
0.00176913
0.00148315
0.0012068
0.00094034
0.000684143
0.000438567
0.000203901
-1.96196e-05
-0.000231807
-0.000432526
-0.00062169
-0.000799267
-0.00096527
-0.00111975
-0.00126277
-0.00139441
-0.00151475
-0.00162391
-0.00172199
-0.00180909
-0.0018853
-0.00195065
-0.00200521
-0.00204898
-0.00208199
-0.00210421
-0.00211559
-0.00211606
-0.00210551
-0.00208381
-0.00205082
-0.00200636
-0.00195025
-0.00188225
-0.00180212
-0.0017096
-0.00160438
-0.00148617
-0.00135465
-0.00120947
-0.00105028
-0.000876689
-0.000688306
-0.000484712
-0.000265469
-3.01269e-05
0.000221782
0.000490739
0.000777244
0.00108182
0.00140502
0.00174741
0.00210958
0.00249216
0.00289576
0.00332103
0.00376866
0.00423935
0.00473381
0.00525283
0.00579717
0.00636766
0.00696515
0.0075905
0.00824461
0.00892841
0.00964285
0.0103889
0.0111677
0.0119802
0.0128275
0.0137107
0.0146311
0.0155897
0.0165878
0.0176265
0.0187072
0.0198311
0.0209994
0.0222134
0.0234744
0.0247836
0.0261424
0.027552
0.0290135
0.0305282
0.0320972
0.0337215
0.0354021
0.0371399
0.0389356
0.0407899
0.0427033
0.0446761
0.0467084
0.0488002
0.0509511
0.0531606
0.0554279
0.0577517
0.0601305
0.0625625
0.0650455
0.0675766
0.0701529
0.0727708
0.0754261
0.0781145
0.0808307
0.0835694
0.0863245
0.0890893
0.0918569
0.0946197
0.0973699
0.100099
0.102798
0.105459
0.108071
0.110626
0.113113
0.115524
0.117849
0.120079
0.122204
0.124217
0.12611
0.127875
0.129506
0.130997
0.132345
0.133545
0.134596
0.135496
0.136246
0.136847
0.137303
0.137617
0.137794
0.137841
0.137765
0.137575
0.137278
0.136884
0.136403
0.135844
0.135216
0.134529
0.13379
0.133007
0.132187
0.131338
0.13047
0.12951
0.128391
0.00379138
0.0033489
0.0029721
0.00263423
0.00230536
0.00198737
0.00168244
0.00139049
0.00111145
0.000845358
0.000592264
0.000352155
0.000124991
-8.92975e-05
-0.000290817
-0.000479711
-0.000656156
-0.000820347
-0.00097249
-0.00111279
-0.00124144
-0.00135866
-0.00146465
-0.00155958
-0.00164363
-0.00171691
-0.00177953
-0.00183156
-0.00187304
-0.00190402
-0.00192448
-0.00193436
-0.00193358
-0.00192205
-0.00189963
-0.00186616
-0.00182147
-0.00176534
-0.00169755
-0.00161784
-0.00152592
-0.0014215
-0.00130428
-0.00117393
-0.00103009
-0.000872415
-0.000700521
-0.000514013
-0.000312476
-9.54816e-05
0.000137409
0.000386647
0.0006527
0.000936051
0.00123721
0.0015567
0.00189507
0.00225288
0.00263072
0.00302919
0.0034489
0.0038905
0.00435465
0.00484205
0.00535342
0.00588951
0.0064511
0.00703898
0.007654
0.008297
0.00896887
0.00967054
0.010403
0.0111671
0.011964
0.0127948
0.0136605
0.0145622
0.0155011
0.0164784
0.0174953
0.0185529
0.0196526
0.0207956
0.0219832
0.0232167
0.0244973
0.0258265
0.0272054
0.0286353
0.0301175
0.0316531
0.0332433
0.0348891
0.0365916
0.0383515
0.0401698
0.0420469
0.0439834
0.0459795
0.0480355
0.0501511
0.0523259
0.0545593
0.0568504
0.0591978
0.0615999
0.0640546
0.0665595
0.0691118
0.0717079
0.0743442
0.0770163
0.0797193
0.0824479
0.0851962
0.0879577
0.0907256
0.0934924
0.0962502
0.0989906
0.101705
0.104384
0.107019
0.109599
0.112116
0.114559
0.116918
0.119185
0.121349
0.123403
0.125338
0.127145
0.128819
0.130353
0.131743
0.132984
0.134073
0.13501
0.135794
0.136425
0.136907
0.137244
0.137439
0.137499
0.13743
0.137242
0.136941
0.136538
0.136041
0.135459
0.134803
0.13408
0.1333
0.132468
0.131593
0.130683
0.12975
0.128713
0.127499
0.00416193
0.00367096
0.00325623
0.00288784
0.00253214
0.00219095
0.00186641
0.00155812
0.00126567
0.000988832
0.000727329
0.00048088
0.000249178
3.18993e-05
-0.000171302
-0.000360792
-0.000536946
-0.000700128
-0.000850696
-0.000988997
-0.00111536
-0.00123012
-0.00133356
-0.00142594
-0.00150748
-0.00157836
-0.00163872
-0.00168868
-0.00172831
-0.00175766
-0.00177672
-0.00178544
-0.00178376
-0.00177156
-0.00174871
-0.00171506
-0.0016704
-0.00161454
-0.00154721
-0.00146817
-0.00137711
-0.00127375
-0.00115778
-0.00102885
-0.000886631
-0.000730757
-0.000560852
-0.000376524
-0.000177365
3.70388e-05
0.000267114
0.000513295
0.00077603
0.00105579
0.00135306
0.00166834
0.00200216
0.00235504
0.00272755
0.00312023
0.00353369
0.00396852
0.00442535
0.00490485
0.00540769
0.0059346
0.00648629
0.00706354
0.00766713
0.00829787
0.00895661
0.00964424
0.0103617
0.0111099
0.0118898
0.0127025
0.0135491
0.0144306
0.0153482
0.016303
0.0172962
0.018329
0.0194027
0.0205186
0.0216779
0.0228819
0.0241321
0.0254296
0.0267759
0.0281723
0.02962
0.0311204
0.0326746
0.0342838
0.0359491
0.0376715
0.039452
0.0412912
0.0431899
0.0451484
0.0471672
0.0492462
0.0513852
0.0535839
0.0558414
0.0581568
0.0605285
0.0629548
0.0654334
0.0679617
0.0705366
0.0731545
0.0758112
0.0785022
0.0812222
0.0839655
0.0867258
0.0894964
0.0922698
0.0950383
0.0977935
0.100527
0.103229
0.10589
0.108501
0.111051
0.113531
0.115931
0.11824
0.12045
0.122551
0.124533
0.12639
0.128112
0.129695
0.131133
0.13242
0.133554
0.134532
0.135354
0.136021
0.136533
0.136895
0.137111
0.137186
0.137127
0.136941
0.136638
0.136224
0.135711
0.135106
0.13442
0.133661
0.132838
0.131958
0.131027
0.130057
0.129058
0.127946
0.126643
0.00451431
0.00397513
0.00352252
0.00312349
0.00274068
0.00237589
0.00203125
0.00170604
0.00139956
0.00111127
0.000840639
0.000587105
0.000350106
0.000129068
-7.65895e-05
-0.000267441
-0.000444045
-0.000606937
-0.00075663
-0.000893615
-0.00101836
-0.00113128
-0.00123277
-0.00132316
-0.00140272
-0.0014717
-0.00153028
-0.00157862
-0.00161682
-0.00164494
-0.00166297
-0.00167089
-0.00166862
-0.00165606
-0.00163308
-0.00159952
-0.00155517
-0.00149981
-0.0014332
-0.00135506
-0.0012651
-0.00116303
-0.00104853
-0.00092127
-0.000780904
-0.000627076
-0.000459413
-0.000277528
-8.10281e-05
0.000130489
0.000357432
0.000600217
0.000859276
0.00113506
0.00142803
0.00173866
0.00206745
0.00241489
0.0027815
0.00316782
0.00357438
0.00400176
0.00445055
0.00492138
0.00541489
0.00593174
0.00647262
0.00703825
0.00762938
0.00824677
0.00889123
0.00956362
0.0102648
0.0109957
0.0117573
0.0125506
0.0133766
0.0142363
0.015131
0.0160616
0.0170295
0.0180358
0.0190817
0.0201686
0.0212978
0.0224706
0.0236883
0.0249523
0.0262641
0.027625
0.0290363
0.0304995
0.0320158
0.0335865
0.0352128
0.0368959
0.0386368
0.0404365
0.0422956
0.044215
0.0461951
0.0482361
0.0503381
0.0525009
0.0547239
0.0570063
0.0593469
0.0617442
0.0641962
0.0667005
0.0692542
0.071854
0.0744959
0.0771756
0.0798881
0.0826278
0.0853885
0.0881638
0.0909462
0.0937281
0.096501
0.0992563
0.101985
0.104677
0.107322
0.109911
0.112434
0.114879
0.117236
0.119497
0.12165
0.123687
0.125598
0.127377
0.129014
0.130506
0.131846
0.133029
0.134055
0.134921
0.135627
0.136174
0.136566
0.136806
0.136899
0.136851
0.136671
0.136365
0.135943
0.135413
0.134786
0.13407
0.133274
0.132408
0.131478
0.130492
0.129462
0.1284
0.127215
0.125825
0.00484409
0.00425705
0.00376669
0.00333698
0.00292692
0.00253828
0.00217318
0.00183063
0.00150962
0.00120934
0.000929002
0.000667773
0.000424837
0.000199378
-9.40356e-06
-0.000202279
-0.000379988
-0.000543234
-0.00069269
-0.000828988
-0.000952714
-0.00106439
-0.00116449
-0.00125342
-0.00133151
-0.00139907
-0.00145634
-0.0015035
-0.00154068
-0.00156794
-0.00158531
-0.00159275
-0.00159021
-0.0015776
-0.00155477
-0.00152155
-0.00147774
-0.00142312
-0.00135743
-0.00128041
-0.00119175
-0.00109117
-0.000978339
-0.000852938
-0.000714623
-0.000563041
-0.000397825
-0.0002186
-2.49872e-05
0.000183399
0.000406946
0.000646055
0.000901136
0.00117262
0.00146093
0.00176654
0.00208988
0.00243143
0.00279166
0.00317108
0.00357018
0.00398951
0.00442961
0.00489107
0.00537448
0.00588047
0.00640968
0.00696279