/*--------------------------------*- C++ -*----------------------------------*\
  =========                 |
  \\      /  F ield         | OpenFOAM: The Open Source CFD Toolbox
   \\    /   O peration     | Website:  https://openfoam.org
    \\  /    A nd           | Version:  7
     \\/     M anipulation  |
\*---------------------------------------------------------------------------*/
FoamFile
{
    version     2.0;
    format      ascii;
    class       volScalarField;
    location    "0.3625";
    object      p;
}
// * * * * * * * * * * * * * * * * * * * * * * * * * * * * * * * * * * * * * //

dimensions      [0 2 -2 0 0 0 0];

internalField   nonuniform List<scalar> 
51200
(
6.28562e-07
9.53566e-07
2.45974e-06
5.85653e-06
1.08764e-05
1.72538e-05
2.4812e-05
3.32498e-05
4.22621e-05
5.17009e-05
6.13434e-05
7.09887e-05
8.05182e-05
8.98169e-05
9.87779e-05
0.000107265
0.000115167
0.00012245
0.000129066
0.000134938
0.000140021
0.000144294
0.00014771
0.000150222
0.00015182
0.000152494
0.000152229
0.000151009
0.000148814
0.000145627
0.00014146
0.000136332
0.000130256
0.000123225
0.000115231
0.000106289
9.64184e-05
8.56277e-05
7.39354e-05
6.13666e-05
4.79416e-05
3.36727e-05
1.85648e-05
2.62658e-06
-1.41197e-05
-3.1649e-05
-4.99394e-05
-6.8974e-05
-8.87395e-05
-0.000109216
-0.000130369
-0.000152163
-0.000174582
-0.000197621
-0.000221261
-0.000245473
-0.000270232
-0.000295517
-0.000321312
-0.000347596
-0.000374343
-0.000401525
-0.000429119
-0.000457107
-0.000485471
-0.000514185
-0.000543225
-0.000572572
-0.000602207
-0.000632107
-0.00066224
-0.000692582
-0.000723119
-0.000753832
-0.000784692
-0.000815671
-0.000846746
-0.000877897
-0.000909103
-0.000940343
-0.000971596
-0.00100285
-0.00103407
-0.00106525
-0.00109636
-0.00112737
-0.00115826
-0.00118899
-0.00121956
-0.00124994
-0.0012801
-0.00131004
-0.00133971
-0.0013691
-0.00139819
-0.00142695
-0.00145536
-0.00148341
-0.00151106
-0.0015383
-0.00156512
-0.00159147
-0.00161734
-0.0016427
-0.00166753
-0.00169181
-0.00171552
-0.00173864
-0.00176113
-0.00178298
-0.00180416
-0.00182464
-0.00184442
-0.00186348
-0.0018818
-0.00189935
-0.00191612
-0.00193208
-0.00194722
-0.00196151
-0.00197494
-0.0019875
-0.00199919
-0.00200998
-0.00201985
-0.00202879
-0.0020368
-0.00204385
-0.00204993
-0.00205504
-0.0020592
-0.00206238
-0.00206459
-0.00206583
-0.00206613
-0.00206548
-0.00206391
-0.00206143
-0.00205807
-0.00205386
-0.00204883
-0.00204301
-0.00203645
-0.00202922
-0.00202136
-0.00201297
-0.00200414
-0.00199495
-0.00198553
-0.00197599
-0.0019665
-0.00195721
-0.00194834
-0.00194011
-0.00193275
-0.00192655
-0.00192181
-0.00191881
-0.00191779
-0.00191845
2.1398e-06
1.86265e-06
3.25026e-06
6.18673e-06
1.05138e-05
1.61313e-05
2.27453e-05
3.00888e-05
3.7998e-05
4.63108e-05
5.4827e-05
6.3382e-05
7.18724e-05
8.01932e-05
8.81951e-05
9.57569e-05
0.000102827
0.000109345
0.000115227
0.000120418
0.000124892
0.000128608
0.000131507
0.000133556
0.000134749
0.000135072
0.00013451
0.000133035
0.000130615
0.000127241
0.000122939
0.000117725
0.000111591
0.000104532
9.65475e-05
8.76519e-05
7.78583e-05
6.71708e-05
5.5612e-05
4.3214e-05
2.99867e-05
1.59288e-05
1.04969e-06
-1.46317e-05
-3.10951e-05
-4.83227e-05
-6.62955e-05
-8.49988e-05
-0.00010442
-0.000124531
-0.000145296
-0.000166684
-0.000188691
-0.000211313
-0.000234523
-0.000258288
-0.000282587
-0.00030741
-0.000332736
-0.000358539
-0.000384796
-0.000411481
-0.000438573
-0.000466053
-0.000493899
-0.000522093
-0.000550612
-0.000579433
-0.000608535
-0.000637897
-0.000667491
-0.000697292
-0.000727286
-0.000757453
-0.000787767
-0.000818196
-0.000848717
-0.000879312
-0.000909962
-0.000940647
-0.000971347
-0.00100204
-0.00103272
-0.00106335
-0.0010939
-0.00112436
-0.00115469
-0.00118488
-0.0012149
-0.00124474
-0.00127436
-0.00130375
-0.00133289
-0.00136175
-0.00139031
-0.00141855
-0.00144644
-0.00147397
-0.00150112
-0.00152786
-0.00155418
-0.00158005
-0.00160544
-0.00163034
-0.00165471
-0.00167855
-0.00170183
-0.00172452
-0.0017466
-0.00176804
-0.00178882
-0.00180894
-0.00182837
-0.00184709
-0.00186509
-0.00188235
-0.00189883
-0.00191452
-0.00192942
-0.00194351
-0.00195675
-0.00196915
-0.00198069
-0.00199137
-0.00200117
-0.00201007
-0.00201806
-0.00202514
-0.00203129
-0.00203649
-0.00204077
-0.00204413
-0.00204657
-0.00204808
-0.00204868
-0.00204839
-0.00204723
-0.00204521
-0.00204236
-0.00203872
-0.00203431
-0.00202916
-0.00202334
-0.00201689
-0.00200988
-0.00200239
-0.0019945
-0.00198632
-0.00197795
-0.0019695
-0.00196111
-0.00195294
-0.00194519
-0.00193802
-0.00193165
-0.00192627
-0.0019221
-0.00191933
-0.00191826
-0.00191897
1.48948e-06
1.0701e-06
2.36586e-06
5.06064e-06
9.0253e-06
1.40975e-05
2.00285e-05
2.66602e-05
3.3818e-05
4.13162e-05
4.89883e-05
5.67356e-05
6.44629e-05
7.20183e-05
7.92576e-05
8.61037e-05
9.25158e-05
9.84059e-05
0.000103696
0.000108353
0.000112335
0.000115586
0.000118063
0.000119739
0.000120596
0.000120626
0.000119808
0.000118102
0.000115482
0.000111953
0.000107541
0.00010225
9.60605e-05
8.89698e-05
8.09874e-05
7.21215e-05
6.23786e-05
5.17699e-05
4.03214e-05
2.80593e-05
1.49868e-05
1.09937e-06
-1.35931e-05
-2.90674e-05
-4.53009e-05
-6.22797e-05
-7.99917e-05
-9.84251e-05
-0.000117561
-0.000137365
-0.000157805
-0.000178866
-0.00020054
-0.000222813
-0.000245658
-0.000269049
-0.000292968
-0.000317403
-0.000342337
-0.000367741
-0.000393587
-0.000419853
-0.000446524
-0.00047358
-0.000500995
-0.00052875
-0.00055683
-0.000585214
-0.000613872
-0.000642777
-0.000671912
-0.00070126
-0.000730799
-0.000760508
-0.000790359
-0.000820325
-0.000850381
-0.000880508
-0.000910688
-0.000940904
-0.000971139
-0.00100137
-0.00103158
-0.00106174
-0.00109183
-0.00112182
-0.00115169
-0.00118142
-0.00121098
-0.00124036
-0.00126953
-0.00129846
-0.00132715
-0.00135556
-0.00138368
-0.00141148
-0.00143893
-0.00146604
-0.00149276
-0.00151909
-0.001545
-0.00157046
-0.00159545
-0.00161995
-0.00164394
-0.00166741
-0.00169033
-0.00171267
-0.00173441
-0.00175551
-0.00177598
-0.00179579
-0.00181492
-0.00183337
-0.00185111
-0.00186812
-0.00188437
-0.00189986
-0.00191456
-0.00192847
-0.00194156
-0.00195383
-0.00196527
-0.00197587
-0.00198561
-0.00199448
-0.00200247
-0.00200957
-0.00201577
-0.00202107
-0.00202547
-0.00202898
-0.0020316
-0.00203334
-0.0020342
-0.00203422
-0.0020334
-0.00203176
-0.00202932
-0.00202614
-0.00202223
-0.00201763
-0.00201239
-0.00200656
-0.00200023
-0.00199344
-0.0019863
-0.00197889
-0.00197132
-0.00196367
-0.00195609
-0.00194872
-0.00194173
-0.0019353
-0.00192959
-0.00192476
-0.00192095
-0.00191833
-0.00191723
-0.00191787
-1.16208e-06
-1.43469e-06
-1.17795e-07
2.62403e-06
6.47206e-06
1.11915e-05
1.66955e-05
2.28605e-05
2.94821e-05
3.63762e-05
4.34406e-05
5.06109e-05
5.77403e-05
6.46716e-05
7.1318e-05
7.76115e-05
8.34768e-05
8.88379e-05
9.36476e-05
9.78627e-05
0.000101421
0.000104275
0.000106393
0.000107748
0.000108325
0.000108109
0.000107059
0.00010514
0.000102343
9.8682e-05
9.41689e-05
8.87951e-05
8.25452e-05
7.54241e-05
6.74393e-05
5.85894e-05
4.88817e-05
3.83404e-05
2.69892e-05
1.48377e-05
1.8869e-06
-1.18595e-05
-2.63919e-05
-4.16908e-05
-5.77306e-05
-7.44985e-05
-9.19915e-05
-0.000110196
-0.000129084
-0.000148618
-0.000168779
-0.000189557
-0.000210943
-0.000232912
-0.000255439
-0.000278505
-0.000302095
-0.000326196
-0.000350786
-0.000375838
-0.000401324
-0.000427224
-0.000453525
-0.000480209
-0.000507247
-0.00053462
-0.000562315
-0.000590312
-0.000618576
-0.000647081
-0.000675813
-0.000704762
-0.000733904
-0.000763209
-0.000792649
-0.000822203
-0.000851849
-0.000881565
-0.000911333
-0.000941137
-0.000970961
-0.00100078
-0.00103058
-0.00106033
-0.00109001
-0.00111959
-0.00114905
-0.00117837
-0.00120752
-0.00123649
-0.00126526
-0.0012938
-0.00132209
-0.00135011
-0.00137784
-0.00140525
-0.00143232
-0.00145905
-0.0014854
-0.00151137
-0.00153692
-0.00156202
-0.00158667
-0.00161083
-0.00163449
-0.00165763
-0.00168024
-0.00170227
-0.00172371
-0.00174453
-0.00176472
-0.00178426
-0.00180315
-0.00182136
-0.00183887
-0.00185567
-0.00187173
-0.00188704
-0.00190158
-0.00191534
-0.00192831
-0.00194048
-0.00195183
-0.00196236
-0.00197206
-0.00198092
-0.00198891
-0.00199603
-0.00200229
-0.00200768
-0.00201219
-0.00201583
-0.00201862
-0.00202055
-0.00202165
-0.00202192
-0.00202139
-0.00202008
-0.00201801
-0.00201521
-0.00201173
-0.00200758
-0.00200282
-0.00199751
-0.00199171
-0.00198549
-0.00197893
-0.00197213
-0.00196517
-0.00195814
-0.00195116
-0.00194437
-0.0019379
-0.00193192
-0.00192656
-0.00192199
-0.00191836
-0.00191581
-0.00191455
-0.00191487
-5.70764e-06
-5.42801e-06
-3.75577e-06
-8.60084e-07
2.93636e-06
7.52416e-06
1.27817e-05
1.86016e-05
2.47888e-05
3.12208e-05
3.78338e-05
4.45055e-05
5.10966e-05
5.74958e-05
6.3642e-05
6.94462e-05
7.482e-05
7.97197e-05
8.41009e-05
8.79038e-05
9.10738e-05
9.35649e-05
9.53448e-05
9.64025e-05
9.67211e-05
9.62674e-05
9.49892e-05
9.2866e-05
8.99061e-05
8.61204e-05
8.15022e-05
7.60412e-05
6.97321e-05
6.258e-05
5.45824e-05
4.57376e-05
3.60633e-05
2.55862e-05
1.43206e-05
2.2657e-06
-1.05769e-05
-2.41964e-05
-3.85799e-05
-5.37116e-05
-6.95701e-05
-8.61462e-05
-0.000103439
-0.000121428
-0.000140079
-0.000159361
-0.000179262
-0.000199776
-0.000220887
-0.000242564
-0.000264789
-0.000287549
-0.00031083
-0.000334613
-0.000358874
-0.000383588
-0.000408733
-0.000434288
-0.000460236
-0.00048656
-0.000513239
-0.000540251
-0.000567579
-0.0005952
-0.000623084
-0.000651208
-0.000679559
-0.000708126
-0.000736883
-0.000765801
-0.000794851
-0.00082401
-0.000853259
-0.000882579
-0.000911954
-0.000941366
-0.000970797
-0.00100023
-0.00102963
-0.00105898
-0.00108826
-0.00111745
-0.00114652
-0.00117545
-0.00120421
-0.00123279
-0.00126117
-0.00128933
-0.00131724
-0.00134489
-0.00137224
-0.00139928
-0.00142599
-0.00145236
-0.00147836
-0.00150398
-0.00152918
-0.00155395
-0.00157826
-0.0016021
-0.00162545
-0.00164829
-0.0016706
-0.00169234
-0.00171349
-0.00173404
-0.00175397
-0.00177327
-0.00179193
-0.00180992
-0.00182722
-0.00184381
-0.00185969
-0.00187484
-0.00188923
-0.00190286
-0.00191571
-0.00192779
-0.00193907
-0.00194954
-0.0019592
-0.00196805
-0.00197606
-0.00198321
-0.00198952
-0.00199499
-0.00199961
-0.00200339
-0.00200633
-0.00200845
-0.00200977
-0.00201029
-0.00201003
-0.00200902
-0.00200728
-0.00200484
-0.00200174
-0.00199801
-0.0019937
-0.00198884
-0.00198351
-0.00197779
-0.00197174
-0.00196545
-0.00195901
-0.00195249
-0.00194599
-0.00193963
-0.00193356
-0.0019279
-0.00192279
-0.00191836
-0.00191469
-0.00191202
-0.00191044
-0.00191016
-1.17488e-05
-1.05831e-05
-8.41709e-06
-5.31475e-06
-1.41425e-06
3.19034e-06
8.34727e-06
1.39115e-05
1.97893e-05
2.59148e-05
3.2183e-05
3.84387e-05
4.45865e-05
5.05506e-05
5.62585e-05
6.16237e-05
6.65767e-05
7.10779e-05
7.50725e-05
7.85002e-05
8.1315e-05
8.34764e-05
8.49565e-05
8.5749e-05
8.58248e-05
8.51342e-05
8.36376e-05
8.13298e-05
7.82222e-05
7.43125e-05
6.95866e-05
6.40414e-05
5.76752e-05
5.04861e-05
4.24682e-05
3.36268e-05
2.39843e-05
1.35625e-05
2.36795e-06
-9.60157e-06
-2.23453e-05
-3.58517e-05
-5.01006e-05
-6.50756e-05
-8.0767e-05
-9.71722e-05
-0.000114281
-0.000132064
-0.000150489
-0.00016954
-0.000189204
-0.00020947
-0.000230319
-0.000251723
-0.000273666
-0.00029614
-0.000319129
-0.000342611
-0.00036656
-0.000390954
-0.000415777
-0.000441007
-0.000466622
-0.000492605
-0.000518942
-0.000545613
-0.000572592
-0.000599853
-0.000627376
-0.00065514
-0.000683131
-0.000711333
-0.000739723
-0.000768271
-0.00079695
-0.000825734
-0.000854606
-0.00088355
-0.000912549
-0.000941586
-0.000970643
-0.000999696
-0.00102872
-0.0010577
-0.0010866
-0.00111541
-0.00114411
-0.00117266
-0.00120106
-0.00122927
-0.00125728
-0.00128508
-0.00131263
-0.00133992
-0.00136691
-0.0013936
-0.00141997
-0.001446
-0.00147167
-0.00149695
-0.00152183
-0.00154628
-0.00157028
-0.00159382
-0.00161688
-0.00163943
-0.00166146
-0.00168292
-0.00170381
-0.0017241
-0.00174379
-0.00176286
-0.0017813
-0.00179909
-0.0018162
-0.00183261
-0.00184832
-0.00186332
-0.00187757
-0.00189108
-0.00190383
-0.00191582
-0.00192704
-0.00193747
-0.0019471
-0.00195593
-0.00196395
-0.00197114
-0.00197751
-0.00198306
-0.00198778
-0.00199169
-0.00199478
-0.00199709
-0.00199861
-0.00199936
-0.00199935
-0.00199862
-0.00199719
-0.00199507
-0.00199232
-0.00198895
-0.00198502
-0.00198058
-0.00197567
-0.00197038
-0.00196477
-0.0019589
-0.00195287
-0.00194675
-0.00194062
-0.00193461
-0.00192883
-0.00192337
-0.00191835
-0.0019139
-0.00191012
-0.00190716
-0.00190507
-0.00190397
-1.89355e-05
-1.67536e-05
-1.40004e-05
-1.05483e-05
-6.40596e-06
-1.68773e-06
3.43898e-06
8.88717e-06
1.46204e-05
2.05361e-05
2.65155e-05
3.2447e-05
3.82587e-05
4.38769e-05
4.92121e-05
5.42042e-05
5.8806e-05
6.29626e-05
6.6617e-05
6.97132e-05
7.22074e-05
7.4072e-05
7.52926e-05
7.58479e-05
7.56906e-05
7.4772e-05
7.30752e-05
7.06021e-05
6.73554e-05
6.33232e-05
5.84942e-05
5.28701e-05
4.64465e-05
3.92121e-05
3.11683e-05
2.23306e-05
1.27175e-05
2.34006e-06
-8.79698e-06
-2.06943e-05
-3.33503e-05
-4.67517e-05
-6.08757e-05
-7.57105e-05
-9.1256e-05
-0.000107509
-0.000124447
-0.000142037
-0.000160255
-0.000179093
-0.00019854
-0.000218575
-0.000239179
-0.00026033
-0.000282014
-0.000304221
-0.000326936
-0.000350136
-0.000373795
-0.000397892
-0.000422412
-0.000447336
-0.000472639
-0.000498304
-0.000524319
-0.000550667
-0.000577318
-0.000604242
-0.000631424
-0.000658849
-0.000686503
-0.000714363
-0.000742406
-0.000770604
-0.000798931
-0.000827363
-0.000855881
-0.000884469
-0.000913114
-0.000941798
-0.000970501
-0.0009992
-0.00102787
-0.00105649
-0.00108504
-0.0011135
-0.00114184
-0.00117004
-0.00119808
-0.00122595
-0.00125362
-0.00128107
-0.00130829
-0.00133523
-0.0013619
-0.00138826
-0.0014143
-0.00144001
-0.00146537
-0.00149034
-0.00151492
-0.00153907
-0.00156278
-0.00158604
-0.00160882
-0.00163111
-0.00165287
-0.00167408
-0.00169472
-0.00171479
-0.00173425
-0.00175311
-0.00177134
-0.00178894
-0.00180587
-0.00182213
-0.00183769
-0.00185254
-0.00186667
-0.00188008
-0.00189273
-0.00190464
-0.0019158
-0.0019262
-0.00193581
-0.00194464
-0.00195267
-0.0019599
-0.00196633
-0.00197196
-0.00197678
-0.00198081
-0.00198405
-0.00198652
-0.00198822
-0.00198919
-0.00198941
-0.00198893
-0.00198777
-0.00198594
-0.0019835
-0.00198046
-0.00197687
-0.00197278
-0.00196823
-0.00196329
-0.00195803
-0.00195251
-0.00194682
-0.00194103
-0.0019352
-0.00192939
-0.00192373
-0.00191835
-0.00191335
-0.00190875
-0.00190475
-0.00190138
-0.00189866
-0.00189658
-2.70423e-05
-2.38288e-05
-2.0322e-05
-1.6385e-05
-1.1913e-05
-7.03835e-06
-1.83369e-06
3.64878e-06
9.33674e-06
1.51119e-05
2.0881e-05
2.6582e-05
3.21376e-05
3.7468e-05
4.24989e-05
4.71897e-05
5.14949e-05
5.53526e-05
5.87106e-05
6.15132e-05
6.37259e-05
6.53373e-05
6.63332e-05
6.66663e-05
6.62834e-05
6.51554e-05
6.32833e-05
6.06608e-05
5.72778e-05
5.31251e-05
4.81997e-05
4.24997e-05
3.6015e-05
2.87327e-05
2.06628e-05
1.18277e-05
2.23876e-06
-8.10339e-06
-1.91952e-05
-3.10333e-05
-4.36124e-05
-5.69169e-05
-7.09274e-05
-8.56403e-05
-0.000101058
-0.00011717
-0.000133948
-0.000151361
-0.000169392
-0.000188039
-0.000207284
-0.000227104
-0.00024748
-0.000268398
-0.000289844
-0.000311805
-0.000334265
-0.000357199
-0.000380588
-0.000404411
-0.000428649
-0.000453283
-0.000478294
-0.000503665
-0.000529381
-0.000555423
-0.000581762
-0.000608371
-0.000635236
-0.000662344
-0.000689679
-0.000717218
-0.000744935
-0.000772804
-0.000800799
-0.000828897
-0.000857081
-0.000885337
-0.00091365
-0.000942001
-0.00097037
-0.000998736
-0.00102707
-0.00105536
-0.00108358
-0.0011117
-0.00113971
-0.00116758
-0.00119529
-0.00122284
-0.00125018
-0.00127731
-0.0013042
-0.00133083
-0.00135718
-0.00138324
-0.00140898
-0.0014344
-0.00145946
-0.00148414
-0.00150843
-0.00153231
-0.00155575
-0.00157874
-0.00160127
-0.00162331
-0.00164483
-0.00166581
-0.00168622
-0.00170606
-0.00172533
-0.00174399
-0.00176204
-0.00177946
-0.00179623
-0.00181234
-0.00182776
-0.00184249
-0.00185651
-0.00186982
-0.0018824
-0.00189424
-0.00190535
-0.00191572
-0.00192533
-0.00193415
-0.0019422
-0.00194947
-0.00195595
-0.00196165
-0.00196657
-0.00197072
-0.0019741
-0.00197672
-0.00197859
-0.00197974
-0.00198018
-0.00197993
-0.00197901
-0.00197745
-0.00197527
-0.00197251
-0.00196921
-0.00196542
-0.00196118
-0.00195655
-0.00195158
-0.00194633
-0.00194087
-0.00193527
-0.00192963
-0.001924
-0.00191843
-0.00191302
-0.0019079
-0.00190307
-0.00189873
-0.00189486
-0.00189143
-0.00188829
-3.58242e-05
-3.15091e-05
-2.71997e-05
-2.27193e-05
-1.78756e-05
-1.27371e-05
-7.3299e-06
-1.73051e-06
3.96287e-06
9.66379e-06
1.53182e-05
2.08648e-05
2.6222e-05
3.13274e-05
3.61294e-05
4.05837e-05
4.46413e-05
4.82438e-05
5.13384e-05
5.38837e-05
5.58619e-05
5.72624e-05
5.80504e-05
5.8168e-05
5.75769e-05
5.6267e-05
5.42382e-05
5.14748e-05
4.7961e-05
4.36974e-05
3.86831e-05
3.29045e-05
2.63517e-05
1.90226e-05
1.09298e-05
2.0935e-06
-7.47981e-06
-1.77942e-05
-2.88499e-05
-4.06401e-05
-5.31504e-05
-6.63651e-05
-8.02763e-05
-9.48877e-05
-0.000110194
-0.000126174
-0.000142801
-0.000160054
-0.000177919
-0.00019639
-0.00021545
-0.000235071
-0.000255237
-0.000275939
-0.000297167
-0.000318903
-0.000341124
-0.000363812
-0.000386951
-0.00041052
-0.000434495
-0.000458857
-0.000483594
-0.000508694
-0.000534133
-0.000559887
-0.000585931
-0.000612245
-0.000638816
-0.000665627
-0.000692662
-0.0007199
-0.000747313
-0.000774872
-0.000802555
-0.000830339
-0.000858211
-0.000886155
-0.000914156
-0.000942196
-0.000970253
-0.000998304
-0.00102633
-0.0010543
-0.0010822
-0.00111002
-0.00113771
-0.00116527
-0.00119268
-0.00121992
-0.00124696
-0.00127379
-0.00130038
-0.00132671
-0.00135277
-0.00137854
-0.001404
-0.00142914
-0.00145392
-0.00147834
-0.00150236
-0.00152598
-0.00154918
-0.00157193
-0.00159422
-0.00161603
-0.00163732
-0.00165808
-0.00167829
-0.00169793
-0.001717
-0.00173549
-0.00175337
-0.00177063
-0.00178725
-0.00180322
-0.00181852
-0.00183314
-0.00184707
-0.00186029
-0.00187281
-0.0018846
-0.00189567
-0.001906
-0.0019156
-0.00192443
-0.0019325
-0.00193981
-0.00194636
-0.00195213
-0.00195714
-0.00196139
-0.00196489
-0.00196766
-0.00196969
-0.00197102
-0.00197165
-0.0019716
-0.00197089
-0.00196955
-0.00196762
-0.00196511
-0.00196206
-0.00195852
-0.00195452
-0.00195011
-0.00194538
-0.00194036
-0.00193509
-0.00192964
-0.00192409
-0.00191851
-0.00191293
-0.00190743
-0.00190212
-0.00189701
-0.00189223
-0.00188782
-0.00188359
-0.00187933
-4.50449e-05
-3.95989e-05
-3.44836e-05
-2.94356e-05
-2.41388e-05
-1.86184e-05
-1.29453e-05
-7.20017e-06
-1.44653e-06
4.26251e-06
9.87809e-06
1.53253e-05
2.05412e-05
2.54866e-05
3.0119e-05
3.43873e-05
3.82417e-05
4.16268e-05
4.44944e-05
4.68294e-05
4.8618e-05
4.98328e-05
5.0422e-05
5.03397e-05
4.95667e-05
4.80976e-05
4.592e-05
4.30196e-05
3.93872e-05
3.50246e-05
2.99234e-05
2.40638e-05
1.74427e-05
1.00705e-05
1.95712e-06
-6.88534e-06
-1.64537e-05
-2.6752e-05
-3.7781e-05
-4.95279e-05
-6.19742e-05
-7.51106e-05
-8.89398e-05
-0.000103465
-0.00011867
-0.000134528
-0.000151018
-0.000168129
-0.000185847
-0.000204158
-0.000223043
-0.000242481
-0.000262457
-0.000282965
-0.000303991
-0.000325517
-0.000347521
-0.000369983
-0.000392889
-0.000416221
-0.000439952
-0.000464065
-0.00048855
-0.000513396
-0.000538575
-0.00056406
-0.000589828
-0.000615868
-0.000642165
-0.000668702
-0.000695458
-0.000722412
-0.000749538
-0.000776808
-0.000804199
-0.000831691
-0.000859271
-0.000886924
-0.000914634
-0.000942381
-0.000970144
-0.000997901
-0.00102563
-0.00105332
-0.00108093
-0.00110844
-0.00113585
-0.00116312
-0.00119024
-0.00121719
-0.00124395
-0.0012705
-0.00129681
-0.00132287
-0.00134865
-0.00137416
-0.00139936
-0.00142423
-0.00144876
-0.00147293
-0.00149671
-0.00152009
-0.00154305
-0.00156559
-0.00158766
-0.00160925
-0.00163033
-0.00165089
-0.00167091
-0.00169037
-0.00170927
-0.0017276
-0.00174533
-0.00176244
-0.00177893
-0.00179477
-0.00180997
-0.00182449
-0.00183833
-0.00185148
-0.00186393
-0.00187568
-0.00188672
-0.00189704
-0.00190663
-0.00191547
-0.00192357
-0.00193092
-0.00193752
-0.00194336
-0.00194846
-0.00195281
-0.00195643
-0.00195932
-0.0019615
-0.00196299
-0.00196379
-0.00196392
-0.00196341
-0.00196227
-0.00196053
-0.00195823
-0.00195538
-0.00195205
-0.00194826
-0.00194405
-0.00193949
-0.00193462
-0.00192948
-0.00192412
-0.0019186
-0.00191298
-0.00190731
-0.00190169
-0.0018961
-0.00189066
-0.0018854
-0.00188039
-0.00187534
-0.00186994
-5.45149e-05
-4.79506e-05
-4.20309e-05
-3.63787e-05
-3.05416e-05
-2.45914e-05
-1.86314e-05
-1.26963e-05
-6.81377e-06
-1.03205e-06
4.58799e-06
9.98858e-06
1.51296e-05
1.9978e-05
2.44896e-05
2.86106e-05
3.22941e-05
3.54957e-05
3.81832e-05
4.03558e-05
4.1986e-05
4.30277e-05
4.34327e-05
4.3176e-05
4.22472e-05
4.06335e-05
3.83167e-05
3.52894e-05
3.15492e-05
2.70914e-05
2.19005e-05
1.59599e-05
9.27507e-06
1.86283e-06
-6.27151e-06
-1.51241e-05
-2.46968e-05
-3.49902e-05
-4.59987e-05
-5.77051e-05
-7.00956e-05
-8.31707e-05
-9.69359e-05
-0.000111384
-0.000126494
-0.000142242
-0.000158612
-0.000175598
-0.000193182
-0.000211347
-0.000230072
-0.000249343
-0.000269149
-0.000289481
-0.000310323
-0.000331655
-0.000353459
-0.000375717
-0.00039841
-0.000421519
-0.000445025
-0.000468911
-0.000493167
-0.000517776
-0.00054271
-0.000567943
-0.000593458
-0.000619245
-0.000645288
-0.000671569
-0.000698066
-0.000724756
-0.000751615
-0.000778614
-0.000805732
-0.000832953
-0.000860262
-0.000887645
-0.000915082
-0.000942556
-0.000970046
-0.000997531
-0.00102499
-0.0010524
-0.00107974
-0.00110698
-0.00113412
-0.00116112
-0.00118798
-0.00121466
-0.00124116
-0.00126744
-0.00129349
-0.00131929
-0.00134483
-0.00137009
-0.00139504
-0.00141968
-0.00144397
-0.00146791
-0.00149146
-0.00151463
-0.00153738
-0.00155971
-0.00158158
-0.00160297
-0.00162386
-0.00164424
-0.00166408
-0.00168338
-0.00170213
-0.0017203
-0.00173789
-0.00175488
-0.00177125
-0.00178699
-0.00180208
-0.00181652
-0.00183028
-0.00184337
-0.00185577
-0.00186749
-0.00187851
-0.00188881
-0.00189839
-0.00190725
-0.00191538
-0.00192277
-0.00192943
-0.00193534
-0.00194052
-0.00194496
-0.00194869
-0.0019517
-0.00195401
-0.00195564
-0.00195659
-0.00195689
-0.00195654
-0.00195557
-0.001954
-0.00195188
-0.00194922
-0.00194605
-0.00194241
-0.00193835
-0.0019339
-0.00192913
-0.00192405
-0.00191872
-0.00191319
-0.00190749
-0.00190169
-0.00189587
-0.00188997
-0.00188413
-0.00187836
-0.00187273
-0.00186683
-0.0018603
-6.41064e-05
-5.64356e-05
-4.96692e-05
-4.33465e-05
-3.69715e-05
-3.06016e-05
-2.43177e-05
-1.81287e-05
-1.20621e-05
-6.17105e-06
-5.06271e-07
4.90664e-06
1.00286e-05
1.48246e-05
1.92539e-05
2.32624e-05
2.68088e-05
2.98692e-05
3.24276e-05
3.44696e-05
3.59531e-05
3.6832e-05
3.70761e-05
3.66713e-05
3.56036e-05
3.38544e-05
3.14111e-05
2.82745e-05
2.44373e-05
1.9883e-05
1.45992e-05
8.58112e-06
1.83795e-06
-5.6141e-06
-1.37728e-05
-2.26414e-05
-3.22261e-05
-4.2522e-05
-5.3512e-05
-6.51815e-05
-7.75292e-05
-9.05609e-05
-0.000104274
-0.000118653
-0.000133676
-0.000149327
-0.000165595
-0.00018247
-0.000199934
-0.000217965
-0.000236546
-0.000255668
-0.000275322
-0.000295494
-0.000316167
-0.000337322
-0.000358945
-0.000381017
-0.000403516
-0.00042642
-0.000449719
-0.000473401
-0.000497446
-0.000521834
-0.000546539
-0.000571542
-0.000596826
-0.00062238
-0.000648187
-0.000674231
-0.000700488
-0.000726934
-0.000753543
-0.00078029
-0.000807157
-0.000834127
-0.000861186
-0.000888316
-0.0009155
-0.00094272
-0.000969959
-0.000997192
-0.0010244
-0.00105156
-0.00107864
-0.00110563
-0.00113251
-0.00115927
-0.00118588
-0.00121232
-0.00123857
-0.00126461
-0.00129042
-0.00131599
-0.00134129
-0.00136632
-0.00139106
-0.00141547
-0.00143955
-0.00146327
-0.00148662
-0.00150959
-0.00153215
-0.00155428
-0.00157597
-0.00159719
-0.0016179
-0.00163811
-0.0016578
-0.00167695
-0.00169556
-0.0017136
-0.00173107
-0.00174794
-0.0017642
-0.00177984
-0.00179484
-0.00180921
-0.00182292
-0.00183595
-0.00184831
-0.00186
-0.001871
-0.0018813
-0.00189089
-0.00189976
-0.00190792
-0.00191536
-0.00192206
-0.00192804
-0.0019333
-0.00193783
-0.00194166
-0.00194478
-0.00194721
-0.00194896
-0.00195005
-0.00195048
-0.00195028
-0.00194947
-0.00194805
-0.00194607
-0.00194355
-0.00194051
-0.00193699
-0.00193302
-0.00192866
-0.00192393
-0.00191887
-0.00191354
-0.00190795
-0.00190213
-0.00189613
-0.00189005
-0.00188381
-0.00187754
-0.00187123
-0.00186496
-0.00185822
-0.00185057
-7.36323e-05
-6.48733e-05
-5.72461e-05
-5.0263e-05
-4.33601e-05
-3.65582e-05
-2.99071e-05
-2.34245e-05
-1.71482e-05
-1.11122e-05
-5.34721e-06
1.27917e-07
5.27281e-06
1.00518e-05
1.44261e-05
1.83495e-05
2.17975e-05
2.4764e-05
2.72322e-05
2.91635e-05
3.05126e-05
3.12497e-05
3.13589e-05
3.08233e-05
2.96258e-05
2.77528e-05
2.51993e-05
2.19639e-05
1.80311e-05
1.33796e-05
8.00746e-06
1.92059e-06
-4.87451e-06
-1.23677e-05
-2.05585e-05
-2.94533e-05
-3.90558e-05
-4.93546e-05
-6.03289e-05
-7.19725e-05
-8.42932e-05
-9.7294e-05
-0.000110963
-0.000125278
-0.000140224
-0.000155795
-0.000171978
-0.000188755
-0.000206109
-0.00022402
-0.000242474
-0.000261464
-0.000280981
-0.000301009
-0.00032153
-0.000342528
-0.000363987
-0.000385889
-0.00040821
-0.00043093
-0.000454043
-0.000477537
-0.000501389
-0.000525573
-0.000550069
-0.000574861
-0.000599933
-0.000625274
-0.000650866
-0.000676691
-0.000702726
-0.000728947
-0.000755325
-0.000781841
-0.000808476
-0.000835215
-0.000862042
-0.00088894
-0.00091589
-0.000942876
-0.000969882
-0.000996885
-0.00102386
-0.00105078
-0.00107763
-0.00110439
-0.00113104
-0.00115757
-0.00118395
-0.00121017
-0.00123619
-0.00126201
-0.0012876
-0.00131295
-0.00133804
-0.00136287
-0.00138739
-0.00141161
-0.00143548
-0.00145901
-0.00148218
-0.00150496
-0.00152735
-0.00154931
-0.00157083
-0.00159188
-0.00161244
-0.0016325
-0.00165205
-0.00167107
-0.00168955
-0.00170748
-0.00172483
-0.0017416
-0.00175777
-0.00177333
-0.00178826
-0.00180256
-0.00181621
-0.00182921
-0.00184154
-0.00185321
-0.0018642
-0.0018745
-0.0018841
-0.001893
-0.00190119
-0.00190866
-0.00191542
-0.00192146
-0.00192679
-0.00193141
-0.00193532
-0.00193854
-0.00194108
-0.00194295
-0.00194416
-0.00194472
-0.00194464
-0.00194395
-0.00194265
-0.00194079
-0.00193839
-0.00193546
-0.00193202
-0.00192812
-0.0019238
-0.00191908
-0.001914
-0.00190861
-0.00190291
-0.00189693
-0.00189072
-0.00188431
-0.00187772
-0.00187098
-0.00186413
-0.00185721
-0.00184963
-0.00184089
-8.29444e-05
-7.31203e-05
-6.46803e-05
-5.70768e-05
-4.963e-05
-4.23559e-05
-3.53111e-05
-2.8522e-05
-2.20107e-05
-1.57893e-05
-9.88195e-06
-4.31036e-06
8.90193e-07
5.67811e-06
1.00227e-05
1.38973e-05
1.72947e-05
2.0205e-05
2.25972e-05
2.44255e-05
2.5657e-05
2.6277e-05
2.6273e-05
2.56205e-05
2.43061e-05
2.23271e-05
1.96786e-05
1.6348e-05
1.23173e-05
7.57113e-06
2.11644e-06
-4.03463e-06
-1.08778e-05
-1.84122e-05
-2.66421e-05
-3.55712e-05
-4.51935e-05
-5.54939e-05
-6.64582e-05
-7.80911e-05
-9.04003e-05
-0.000103378
-0.000117008
-0.00013127
-0.000146155
-0.000161659
-0.000177768
-0.000194459
-0.000211714
-0.000229519
-0.000247864
-0.00026674
-0.000286135
-0.000306032
-0.000326419
-0.000347278
-0.00036859
-0.000390335
-0.000412495
-0.000435054
-0.000458002
-0.000481324
-0.000504998
-0.000528997
-0.000553304
-0.000577903
-0.000602783
-0.00062793
-0.000653327
-0.000678952
-0.000704784
-0.000730796
-0.000756964
-0.000783267
-0.000809691
-0.000836218
-0.000862832
-0.000889516
-0.000916253
-0.000943026
-0.000969819
-0.000996608
-0.00102337
-0.00105007
-0.00107671
-0.00110326
-0.0011297
-0.00115602
-0.00118219
-0.0012082
-0.00123401
-0.00125962
-0.00128502
-0.00131017
-0.00133508
-0.00135971
-0.00138405
-0.00140808
-0.00143178
-0.00145513
-0.00147813
-0.00150075
-0.00152297
-0.00154478
-0.00156614
-0.00158705
-0.00160747
-0.0016274
-0.00164682
-0.00166572
-0.0016841
-0.00170192
-0.00171919
-0.00173587
-0.00175195
-0.00176744
-0.00178232
-0.00179656
-0.00181017
-0.00182314
-0.00183545
-0.00184711
-0.00185809
-0.00186839
-0.00187801
-0.00188693
-0.00189516
-0.00190267
-0.00190948
-0.00191559
-0.00192099
-0.00192569
-0.00192969
-0.001933
-0.00193563
-0.0019376
-0.00193892
-0.00193958
-0.00193961
-0.00193902
-0.00193783
-0.00193606
-0.00193374
-0.00193089
-0.00192752
-0.00192366
-0.00191935
-0.0019146
-0.00190946
-0.00190396
-0.00189812
-0.00189195
-0.0018855
-0.00187877
-0.00187179
-0.00186457
-0.00185715
-0.00184959
-0.0018412
-0.00183141
-9.19398e-05
-8.11112e-05
-7.19077e-05
-6.36789e-05
-5.56644e-05
-4.79103e-05
-4.04705e-05
-3.33566e-05
-2.65741e-05
-2.01336e-05
-1.40585e-05
-8.37015e-06
-3.0978e-06
1.71936e-06
6.06859e-06
9.93895e-06
1.33238e-05
1.61979e-05
1.85206e-05
2.02581e-05
2.13954e-05
2.19199e-05
2.18134e-05
2.10562e-05
1.96428e-05
1.75746e-05
1.48376e-05
1.14106e-05
7.28331e-06
2.45189e-06
-3.07559e-06
-9.2869e-06
-1.61792e-05
-2.37602e-05
-3.20372e-05
-4.10041e-05
-5.06442e-05
-6.09479e-05
-7.19153e-05
-8.35529e-05
-9.58592e-05
-0.000108818
-0.000122415
-0.000136637
-0.000151476
-0.000166927
-0.000182972
-0.000199589
-0.000216758
-0.000234473
-0.000252725
-0.000271502
-0.000290789
-0.000310572
-0.00033084
-0.000351576
-0.000372757
-0.000394361
-0.000416378
-0.000438795
-0.000461598
-0.000484766
-0.000508277
-0.00053211
-0.000556246
-0.000580673
-0.000605379
-0.000630351
-0.000655572
-0.000681018
-0.000706663
-0.000732484
-0.00075846
-0.000784571
-0.000810803
-0.000837137
-0.000863556
-0.000890046
-0.000916589
-0.000943169
-0.000969768
-0.000996362
-0.00102292
-0.00104943
-0.00107587
-0.00110223
-0.00112848
-0.00115461
-0.0011806
-0.00120641
-0.00123204
-0.00125747
-0.00128267
-0.00130766
-0.00133239
-0.00135685
-0.00138102
-0.00140488
-0.00142842
-0.00145162
-0.00147446
-0.00149694
-0.00151902
-0.00154069
-0.00156192
-0.00158269
-0.00160299
-0.0016228
-0.00164212
-0.00166092
-0.00167919
-0.00169693
-0.00171412
-0.00173072
-0.00174674
-0.00176217
-0.001777
-0.0017912
-0.00180477
-0.00181772
-0.00183003
-0.00184168
-0.00185266
-0.00186297
-0.00187261
-0.00188156
-0.00188982
-0.00189739
-0.00190425
-0.00191041
-0.00191587
-0.00192065
-0.00192473
-0.00192813
-0.00193085
-0.00193291
-0.00193432
-0.00193508
-0.0019352
-0.00193469
-0.00193358
-0.00193188
-0.00192962
-0.00192682
-0.00192349
-0.00191965
-0.00191531
-0.00191051
-0.0019053
-0.00189967
-0.00189365
-0.00188727
-0.00188055
-0.00187348
-0.0018661
-0.00185839
-0.00185041
-0.00184221
-0.00183303
-0.00182223