/*--------------------------------*- C++ -*----------------------------------*\
  =========                 |
  \\      /  F ield         | OpenFOAM: The Open Source CFD Toolbox
   \\    /   O peration     | Website:  https://openfoam.org
    \\  /    A nd           | Version:  7
     \\/     M anipulation  |
\*---------------------------------------------------------------------------*/
FoamFile
{
    version     2.0;
    format      ascii;
    class       volScalarField;
    location    "0.175";
    object      p;
}
// * * * * * * * * * * * * * * * * * * * * * * * * * * * * * * * * * * * * * //

dimensions      [0 2 -2 0 0 0 0];

internalField   nonuniform List<scalar> 
51200
(
-2.00129e-07
4.72967e-05
0.000118289
0.000184082
0.000235793
0.000279453
0.000317749
0.000352068
0.000383336
0.00041227
0.000439312
0.00046472
0.000488688
0.000511317
0.000532599
0.000552644
0.000571431
0.00058896
0.000605311
0.000620387
0.000634206
0.000646866
0.00065831
0.000668536
0.000677519
0.000685239
0.00069166
0.000696856
0.000700952
0.000703834
0.000705441
0.000705839
0.000705066
0.000703168
0.000700263
0.000696384
0.000691426
0.000685317
0.000678088
0.000669846
0.000660649
0.000650498
0.00063943
0.000627484
0.000614631
0.000600873
0.000586273
0.000570914
0.000554738
0.000537753
0.000520014
0.000501563
0.000482418
0.000462551
0.000441959
0.000420701
0.000398828
0.000376335
0.000353215
0.000329514
0.000305313
0.000280644
0.000255492
0.00022987
0.000203839
0.000177442
0.000150707
0.000123649
9.62752e-05
6.86169e-05
4.07184e-05
1.25984e-05
-1.57567e-05
-4.4339e-05
-7.30992e-05
-0.000101986
-0.000130987
-0.00016012
-0.000189378
-0.000218719
-0.000248102
-0.000277507
-0.000306937
-0.000336397
-0.000365864
-0.00039528
-0.000424588
-0.000453765
-0.000482812
-0.00051173
-0.000540478
-0.000569018
-0.000597321
-0.000625383
-0.000653205
-0.000680764
-0.000708025
-0.000734954
-0.000761524
-0.000787719
-0.000813524
-0.000838906
-0.000863822
-0.000888248
-0.000912178
-0.000935616
-0.000958557
-0.000980964
-0.00100279
-0.00102399
-0.00104455
-0.00106448
-0.00108376
-0.00110235
-0.00112023
-0.00113735
-0.00115368
-0.00116922
-0.00118395
-0.00119786
-0.00121092
-0.0012231
-0.00123439
-0.00124479
-0.00125432
-0.00126297
-0.00127072
-0.00127755
-0.00128344
-0.00128838
-0.00129239
-0.00129549
-0.00129769
-0.001299
-0.00129941
-0.00129892
-0.00129754
-0.0012953
-0.0012922
-0.00128829
-0.00128357
-0.00127809
-0.00127186
-0.00126495
-0.00125741
-0.00124932
-0.00124076
-0.00123181
-0.00122256
-0.00121315
-0.0012037
-0.00119441
-0.00118548
-0.00117713
-0.00116962
-0.00116321
-0.00115817
-0.0011548
-0.00115338
-0.00115367
4.68681e-05
8.99656e-05
0.000145227
0.000197619
0.000242895
0.000282663
0.000318267
0.000350649
0.000380401
0.000408066
0.000433996
0.000458339
0.000481291
0.000502925
0.000523308
0.000542432
0.000560354
0.000577122
0.000592682
0.000607043
0.000620251
0.000632249
0.000643059
0.00065273
0.000661268
0.000668574
0.00067466
0.000679589
0.000683379
0.000686022
0.000687558
0.00068794
0.000687126
0.000685186
0.000682187
0.000678197
0.000673227
0.000667218
0.000660186
0.000652169
0.000643151
0.000633173
0.00062232
0.000610618
0.000598012
0.000584529
0.00057026
0.000555216
0.000539388
0.000522778
0.000505418
0.000487351
0.000468586
0.000449105
0.000428923
0.000408114
0.000386709
0.000364663
0.000341989
0.000318772
0.000295068
0.00027088
0.000246207
0.000221076
0.000195543
0.000169657
0.000143443
0.0001169
9.00415e-05
6.29158e-05
3.55722e-05
8.00334e-06
-1.98167e-05
-4.78652e-05
-7.60869e-05
-0.000104441
-0.000132914
-0.000161513
-0.00019022
-0.000218998
-0.000247819
-0.000276677
-0.000305576
-0.000334508
-0.000363431
-0.000392286
-0.000421033
-0.000449672
-0.000478204
-0.000506606
-0.00053482
-0.000562811
-0.000590577
-0.000618122
-0.000645438
-0.000672493
-0.000699237
-0.000725641
-0.000751695
-0.000777396
-0.000802728
-0.000827644
-0.000852087
-0.000876032
-0.000899489
-0.000922475
-0.000944987
-0.00096698
-0.000988393
-0.00100919
-0.00102937
-0.00104893
-0.00106786
-0.00108611
-0.00110366
-0.00112047
-0.00113652
-0.0011518
-0.0011663
-0.00118
-0.00119287
-0.00120488
-0.00121602
-0.00122631
-0.00123575
-0.00124436
-0.00125209
-0.00125893
-0.00126486
-0.00126987
-0.001274
-0.00127725
-0.00127966
-0.00128121
-0.0012819
-0.00128173
-0.00128073
-0.0012789
-0.00127629
-0.00127291
-0.00126879
-0.00126394
-0.00125841
-0.00125226
-0.00124554
-0.00123832
-0.00123069
-0.00122272
-0.0012145
-0.00120615
-0.00119781
-0.00118963
-0.00118182
-0.00117456
-0.00116805
-0.00116251
-0.00115811
-0.00115509
-0.00115371
-0.001154
0.000111044
0.000139588
0.000176696
0.000216269
0.000253985
0.000289021
0.000321451
0.000351578
0.000379672
0.000405989
0.000430752
0.000454113
0.000476086
0.000496869
0.000516437
0.000534743
0.000551946
0.000567979
0.000582867
0.000596638
0.000609273
0.000620709
0.000631039
0.000640197
0.000648268
0.000655232
0.000661022
0.00066566
0.000669171
0.000671591
0.000672948
0.000673226
0.000672399
0.00067045
0.000667426
0.000663395
0.00065837
0.000652373
0.000645455
0.000637576
0.000628683
0.000618853
0.000608185
0.000596642
0.000584226
0.000570977
0.000556958
0.000542168
0.000526606
0.000510285
0.000493246
0.000475526
0.000457089
0.000437926
0.000418092
0.000397654
0.000376601
0.000354901
0.000332602
0.000309789
0.000286484
0.000262685
0.000238415
0.000213706
0.00018861
0.000163174
0.000137397
0.000111272
8.48419e-05
5.8169e-05
3.12729e-05
4.13485e-06
-2.32478e-05
-5.08306e-05
-7.85679e-05
-0.000106451
-0.000134484
-0.000162652
-0.000190916
-0.000219227
-0.000247566
-0.000275954
-0.000304407
-0.000332902
-0.000361374
-0.000389759
-0.00041804
-0.000446231
-0.000474328
-0.000502288
-0.00053005
-0.000557586
-0.000584908
-0.000612024
-0.00063892
-0.000665555
-0.000691873
-0.000717843
-0.00074347
-0.000768754
-0.000793675
-0.000818185
-0.00084223
-0.000865791
-0.000888882
-0.000911513
-0.000933665
-0.000955294
-0.000976352
-0.000996818
-0.00101669
-0.00103596
-0.00105459
-0.00107257
-0.00108984
-0.00110638
-0.00112219
-0.00113726
-0.00115158
-0.00116512
-0.00117784
-0.0011897
-0.00120073
-0.00121093
-0.00122032
-0.0012289
-0.00123663
-0.00124348
-0.00124944
-0.00125452
-0.00125875
-0.00126215
-0.00126472
-0.00126648
-0.0012674
-0.0012675
-0.0012668
-0.00126532
-0.00126311
-0.00126017
-0.00125652
-0.00125218
-0.00124721
-0.00124165
-0.00123558
-0.00122906
-0.00122215
-0.00121494
-0.0012075
-0.00119995
-0.00119241
-0.00118505
-0.00117802
-0.0011715
-0.00116565
-0.00116064
-0.00115662
-0.00115377
-0.00115239
-0.00115265
0.000166209
0.000182861
0.000207646
0.000237093
0.000267712
0.000297857
0.000326884
0.000354548
0.000380764
0.000405619
0.000429194
0.000451457
0.000472546
0.000492484
0.000511225
0.000528867
0.000545361
0.00056073
0.000575029
0.00058822
0.000600293
0.000611302
0.000621164
0.000629901
0.000637557
0.000644153
0.000649662
0.00065406
0.000657355
0.000659543
0.00066067
0.000660775
0.000659828
0.00065785
0.000654861
0.000650837
0.000645786
0.000639798
0.000632926
0.000625083
0.000616288
0.000606616
0.000596074
0.000584659
0.000572395
0.000559351
0.000545537
0.000530953
0.000515598
0.00049951
0.00048274
0.000465281
0.000447096
0.000428219
0.000408714
0.000388588
0.000367815
0.000346416
0.00032446
0.000301998
0.000279035
0.000255568
0.000231634
0.000207288
0.000182579
0.000157528
0.000132118
0.000106371
8.03494e-05
5.4095e-05
2.7588e-05
8.12529e-07
-2.62019e-05
-5.33933e-05
-8.072e-05
-0.000108191
-0.000135825
-0.000163601
-0.000191465
-0.000219368
-0.0002473
-0.000275293
-0.000303356
-0.00033145
-0.000359509
-0.000387483
-0.000415376
-0.000443194
-0.000470912
-0.000498477
-0.00052584
-0.000552986
-0.000579933
-0.000606682
-0.000633204
-0.000659454
-0.000685388
-0.000710989
-0.000736265
-0.000761204
-0.000785768
-0.000809908
-0.000833588
-0.000856811
-0.000879596
-0.000901935
-0.000923787
-0.000945102
-0.000965849
-0.000986022
-0.00100562
-0.00102463
-0.00104302
-0.00106075
-0.00107778
-0.0010941
-0.0011097
-0.0011246
-0.00113877
-0.00115217
-0.00116476
-0.00117651
-0.00118745
-0.0011976
-0.00120696
-0.00121551
-0.00122323
-0.0012301
-0.0012361
-0.00124125
-0.00124558
-0.00124911
-0.00125185
-0.00125377
-0.00125489
-0.00125522
-0.00125478
-0.0012536
-0.00125172
-0.00124914
-0.00124588
-0.00124197
-0.00123746
-0.00123239
-0.00122684
-0.00122087
-0.00121455
-0.00120793
-0.0012011
-0.00119415
-0.0011872
-0.00118041
-0.00117392
-0.00116788
-0.00116244
-0.00115771
-0.00115384
-0.001151
-0.00114945
-0.00114939
0.000205204
0.000217223
0.000235122
0.000257698
0.000282658
0.000308382
0.000334086
0.000359159
0.000383346
0.000406596
0.000428775
0.0004499
0.000469955
0.000488945
0.000506922
0.000523781
0.000539557
0.000554334
0.000568012
0.00058063
0.000592198
0.000602739
0.000612167
0.000620521
0.000627804
0.000634022
0.000639196
0.000643342
0.000646428
0.000648447
0.000649414
0.00064933
0.000648224
0.000646157
0.000643135
0.000639088
0.000634064
0.000628131
0.000621237
0.000613412
0.000604708
0.000595148
0.000584708
0.000573401
0.000561291
0.000548424
0.000534789
0.000520386
0.000505233
0.000489388
0.000472865
0.000455616
0.000437655
0.000419057
0.000399851
0.000379991
0.000359477
0.000338373
0.000316741
0.000294604
0.00027196
0.000248814
0.000225214
0.00020123
0.000176888
0.00015218
0.000127106
0.00010172
7.60902e-05
5.0225e-05
2.40875e-05
-2.32415e-06
-2.8962e-05
-5.57733e-05
-8.27292e-05
-0.000109836
-0.0001371
-0.000164486
-0.000191946
-0.000219451
-0.00024701
-0.000274645
-0.000302343
-0.000330045
-0.000357698
-0.000385283
-0.000412814
-0.000440282
-0.000467637
-0.000494822
-0.000521805
-0.000548588
-0.000575189
-0.000601596
-0.000627761
-0.000653637
-0.000679198
-0.000704445
-0.000729388
-0.000754002
-0.000778231
-0.000802026
-0.00082537
-0.000848278
-0.000870767
-0.000892819
-0.00091438
-0.000935403
-0.000955867
-0.000975771
-0.000995115
-0.00101388
-0.00103203
-0.00104951
-0.00106632
-0.00108243
-0.00109786
-0.00111261
-0.00112664
-0.0011399
-0.00115237
-0.00116402
-0.0011749
-0.001185
-0.00119433
-0.00120287
-0.00121059
-0.00121746
-0.00122351
-0.00122874
-0.00123318
-0.00123684
-0.00123972
-0.00124181
-0.00124311
-0.00124365
-0.00124345
-0.00124255
-0.00124098
-0.00123873
-0.00123583
-0.0012323
-0.0012282
-0.00122357
-0.00121849
-0.00121301
-0.00120719
-0.00120107
-0.00119474
-0.00118828
-0.00118182
-0.00117547
-0.00116939
-0.00116369
-0.00115848
-0.00115389
-0.00115003
-0.00114705
-0.00114515
-0.00114445
0.00023515
0.000244973
0.000259086
0.000277175
0.000297895
0.00032002
0.000342632
0.000365238
0.000387397
0.000408876
0.00042963
0.000449486
0.000468401
0.000486448
0.000503527
0.000519591
0.000534696
0.000548774
0.000561868
0.000573932
0.000584977
0.000595015
0.000604041
0.000612002
0.00061892
0.000624824
0.000629683
0.000633524
0.000636366
0.000638203
0.000639018
0.0006388
0.00063759
0.000635434
0.000632289
0.000628196
0.000623207
0.000617281
0.000610387
0.000602597
0.000593966
0.000584476
0.000574112
0.000562912
0.000550948
0.000538225
0.000524739
0.000510485
0.000495528
0.000479913
0.000463589
0.000446535
0.00042881
0.000410473
0.000391512
0.000371889
0.000351629
0.000330813
0.000309479
0.000287632
0.000265273
0.000242426
0.000219155
0.000195521
0.00017152
0.000147131
0.000122391
9.7365e-05
7.20942e-05
4.65648e-05
2.07588e-05
-5.29951e-06
-3.15599e-05
-5.7994e-05
-8.45985e-05
-0.000111371
-0.000138292
-0.00016531
-0.000192383
-0.000219511
-0.00024672
-0.000274019
-0.000301365
-0.000328692
-0.000355969
-0.0003832
-0.000410395
-0.000437525
-0.000464528
-0.000491351
-0.000517981
-0.000544428
-0.000570702
-0.00059678
-0.000622604
-0.00064813
-0.00067335
-0.000698272
-0.000722895
-0.000747186
-0.000771088
-0.000794563
-0.000817607
-0.000840233
-0.000862447
-0.000884218
-0.000905495
-0.00092624
-0.000946441
-0.000966101
-0.000985211
-0.00100375
-0.00102166
-0.00103893
-0.00105552
-0.00107145
-0.00108672
-0.00110133
-0.00111522
-0.00112836
-0.00114072
-0.00115229
-0.0011631
-0.00117317
-0.00118248
-0.00119101
-0.00119872
-0.00120562
-0.00121171
-0.00121702
-0.00122157
-0.00122535
-0.00122836
-0.0012306
-0.00123208
-0.00123282
-0.00123285
-0.00123222
-0.00123092
-0.00122897
-0.00122639
-0.0012232
-0.00121947
-0.00121523
-0.00121056
-0.0012055
-0.0012001
-0.00119441
-0.00118848
-0.00118241
-0.00117631
-0.0011703
-0.00116451
-0.00115901
-0.00115391
-0.00114931
-0.00114533
-0.00114208
-0.00113967
-0.00113813
0.000259092
0.000267933
0.000279831
0.000295022
0.000312712
0.000331953
0.000352035
0.000372333
0.000392534
0.000412375
0.000431657
0.000450216
0.000468022
0.000485014
0.000501178
0.000516471
0.000530801
0.00054422
0.000556709
0.000568202
0.000578745
0.000588291
0.000596869
0.00060444
0.000611003
0.000616588
0.00062117
0.000624743
0.000627326
0.000628941
0.000629552
0.000629203
0.000627925
0.000625655
0.000622423
0.000618285
0.000613266
0.000607307
0.000600424
0.000592679
0.000584087
0.00057464
0.000564342
0.000553247
0.000541405
0.000528803
0.000515439
0.000501337
0.000486567
0.000471127
0.000454958
0.000438097
0.000420608
0.000402497
0.000383737
0.000364326
0.000344317
0.000323773
0.000302713
0.000281127
0.000259031
0.000236473
0.000213516
0.000190192
0.000166483
0.000142396
0.00011799
9.33174e-05
6.83778e-05
4.31517e-05
1.76499e-05
-8.07919e-06
-3.39883e-05
-6.00697e-05
-8.63414e-05
-0.000112793
-0.000139382
-0.000166053
-0.000192772
-0.000219563
-0.000246453
-0.000273428
-0.000300428
-0.000327399
-0.000354336
-0.000381251
-0.000408132
-0.000434937
-0.000461603
-0.000488091
-0.0005144
-0.000540541
-0.000566507
-0.000592264
-0.000617757
-0.000642957
-0.000667869
-0.0006925
-0.000716829
-0.00074081
-0.000764396
-0.000787567
-0.000810334
-0.000832706
-0.000854664
-0.000876171
-0.000897182
-0.000917671
-0.000937631
-0.000957065
-0.000975961
-0.000994284
-0.00101199
-0.00102904
-0.00104544
-0.00106121
-0.00107634
-0.00109082
-0.00110459
-0.00111762
-0.00112987
-0.00114137
-0.00115214
-0.00116218
-0.00117147
-0.00117998
-0.0011877
-0.00119462
-0.00120076
-0.00120615
-0.0012108
-0.00121469
-0.00121783
-0.00122021
-0.00122185
-0.00122278
-0.00122304
-0.00122264
-0.00122159
-0.00121991
-0.00121761
-0.00121473
-0.00121131
-0.00120741
-0.00120309
-0.00119838
-0.00119333
-0.00118797
-0.00118236
-0.00117658
-0.00117074
-0.00116497
-0.00115935
-0.00115395
-0.00114884
-0.00114412
-0.00113989
-0.00113626
-0.00113322
-0.00113072
0.000278588
0.000287101
0.000297804
0.000311114
0.000326623
0.000343696
0.000361669
0.000380047
0.000398497
0.000416743
0.000434644
0.000452005
0.000468676
0.000484647
0.00049991
0.000514358
0.000527961
0.000540719
0.000552572
0.000563519
0.000573535
0.00058262
0.000590737
0.000597902
0.000604091
0.00060933
0.000613621
0.000616948
0.000619311
0.000620679
0.000621095
0.000620595
0.000619171
0.000616795
0.000613505
0.000609325
0.000604228
0.000598222
0.000591354
0.00058363
0.000575051
0.000565627
0.000555388
0.000544393
0.000532635
0.000520119
0.000506865
0.000492929
0.000478319
0.000462999
0.000446977
0.000430308
0.00041303
0.000395106
0.000376522
0.000357315
0.000337542
0.000317243
0.000296421
0.000275067
0.000253225
0.000230957
0.000208298
0.000185247
0.000161795
0.00013799
0.000113901
8.95504e-05
6.49106e-05
3.99732e-05
1.47725e-05
-1.06396e-05
-3.62302e-05
-6.20016e-05
-8.79693e-05
-0.00011411
-0.000140371
-0.000166707
-0.000193108
-0.000219604
-0.000246203
-0.000272865
-0.000299532
-0.000326174
-0.000352804
-0.000379429
-0.000406014
-0.000432505
-0.000458851
-0.00048503
-0.000511048
-0.00053691
-0.000562589
-0.000588039
-0.000613217
-0.000638111
-0.000662738
-0.000687098
-0.00071115
-0.000734841
-0.000758135
-0.00078103
-0.000803541
-0.00082567
-0.000847384
-0.000868642
-0.000889407
-0.000909662
-0.000929408
-0.000948641
-0.00096734
-0.000985465
-0.00100297
-0.00101984
-0.00103607
-0.0010517
-0.0010667
-0.00108106
-0.00109471
-0.00110762
-0.00111979
-0.00113124
-0.00114197
-0.00115198
-0.00116125
-0.00116975
-0.00117746
-0.00118441
-0.00119062
-0.00119609
-0.00120083
-0.00120483
-0.00120808
-0.00121059
-0.00121238
-0.0012135
-0.00121396
-0.00121377
-0.00121296
-0.00121152
-0.00120947
-0.00120686
-0.00120371
-0.0012001
-0.00119607
-0.00119165
-0.00118687
-0.00118177
-0.00117639
-0.00117083
-0.00116517
-0.00115952
-0.00115397
-0.00114857
-0.00114337
-0.00113844
-0.00113388
-0.00112978
-0.00112604
-0.00112249
0.000294605
0.000303248
0.000313315
0.000325433
0.000339462
0.000354871
0.000371195
0.000387998
0.000404908
0.000421769
0.000438386
0.00045459
0.000470246
0.000485277
0.000499632
0.000513276
0.000526159
0.000538224
0.000549474
0.000559878
0.000569339
0.000577958
0.000585651
0.000592394
0.000598223
0.000603104
0.000607075
0.000610138
0.000612241
0.000613404
0.000613644
0.000612973
0.000611367
0.000608874
0.000605515
0.000601256
0.000596077
0.000590032
0.000583154
0.000575427
0.000566844
0.00055743
0.000547251
0.000536329
0.000524628
0.000512175
0.000499035
0.000485239
0.000470744
0.000455528
0.000439652
0.000423163
0.000406051
0.000388282
0.000369864
0.000350858
0.000331308
0.000311225
0.000290604
0.00026946
0.000247861
0.000225867
0.000203475
0.000180667
0.000157468
0.000133943
0.000110141
8.60622e-05
6.16835e-05
3.70202e-05
1.2118e-05
-1.29858e-05
-3.82824e-05
-6.37782e-05
-8.94692e-05
-0.000115315
-0.00014126
-0.000167282
-0.000193396
-0.000219626
-0.000245951
-0.000272312
-0.000298667
-0.000325015
-0.000351369
-0.000377722
-0.000404024
-0.000430217
-0.000456265
-0.000482159
-0.000507909
-0.00053351
-0.000558916
-0.000584077
-0.000608964
-0.000633581
-0.000657947
-0.000682046
-0.000705829
-0.000729244
-0.00075227
-0.000774917
-0.000797197
-0.000819097
-0.000840578
-0.000861601
-0.00088214
-0.000902186
-0.000921741
-0.000940794
-0.000959314
-0.000977255
-0.00099458
-0.00101128
-0.00102737
-0.00104287
-0.00105776
-0.001072
-0.00108554
-0.00109835
-0.00111045
-0.00112184
-0.00113254
-0.00114252
-0.00115177
-0.00116026
-0.00116799
-0.00117497
-0.00118123
-0.00118677
-0.0011916
-0.0011957
-0.00119906
-0.00120169
-0.00120364
-0.00120492
-0.00120557
-0.00120559
-0.00120499
-0.00120376
-0.00120193
-0.00119954
-0.00119664
-0.00119327
-0.00118947
-0.00118528
-0.00118071
-0.00117579
-0.00117059
-0.00116517
-0.00115962
-0.00115403
-0.00114846
-0.00114297
-0.0011376
-0.00113239
-0.00112744
-0.00112282
-0.00111832
-0.0011137
0.000307848
0.000316826
0.000326761
0.000338125
0.000351113
0.000365342
0.000380368
0.000395878
0.000411548
0.000427201
0.00044267
0.000457839
0.00047255
0.000486698
0.000500241
0.000513138
0.000525291
0.000536704
0.000547378
0.0005572
0.000566175
0.000574287
0.000581538
0.000587906
0.000593358
0.000597911
0.000601571
0.000604326
0.000606154
0.000607096
0.000607154
0.000606292
0.000604529
0.000601915
0.000598442
0.000594078
0.000588825
0.000582732
0.000575817
0.000568057
0.000559457
0.000550059
0.000539925
0.000529031
0.000517373
0.000504991
0.000491955
0.000478252
0.000463832
0.000448727
0.000432998
0.000416654
0.000399669
0.00038203
0.00036377
0.000344955
0.000325602
0.000305704
0.000285265
0.000264329
0.000242966
0.000221207
0.000199034
0.000176445
0.000153499
0.000130249
0.000106709
8.28654e-05
5.87201e-05
3.43127e-05
9.69091e-06
-1.51275e-05
-4.01548e-05
-6.53971e-05
-9.08265e-05
-0.000116389
-0.00014204
-0.000167783
-0.000193646
-0.000219626
-0.000245681
-0.000271756
-0.00029783
-0.000323916
-0.00035002
-0.000376115
-0.000402146
-0.000428059
-0.000453834
-0.000479476
-0.00050498
-0.000530329
-0.000555468
-0.000580354
-0.000604977
-0.000629349
-0.000653475
-0.000677328
-0.000700849
-0.000724001
-0.000746783
-0.000769208
-0.000791274
-0.000812959
-0.000834222
-0.000855029
-0.000875364
-0.000895226
-0.000914613
-0.000933507
-0.000951863
-0.000969633
-0.000986793
-0.00100335
-0.00101932
-0.00103471
-0.00104949
-0.00106361
-0.00107704
-0.00108977
-0.0011018
-0.00111315
-0.00112382
-0.00113378
-0.00114301
-0.00115149
-0.00115923
-0.00116625
-0.00117257
-0.00117819
-0.0011831
-0.00118728
-0.00119074
-0.00119349
-0.00119558
-0.00119703
-0.00119786
-0.00119806
-0.00119764
-0.00119659
-0.00119495
-0.00119276
-0.00119005
-0.00118688
-0.00118328
-0.00117926
-0.00117484
-0.00117005
-0.00116496
-0.00115963
-0.00115414
-0.00114854
-0.00114289
-0.00113724
-0.00113162
-0.00112609
-0.0011207
-0.00111553
-0.00111024
-0.00110454
0.000318849
0.000328415
0.000338337
0.000349339
0.000361652
0.000374987
0.000389047
0.000403554
0.000418207
0.000432848
0.000447357
0.000461598
0.000475429
0.000488795
0.000501604
0.000513789
0.000525285
0.000536087
0.000546172
0.000555466
0.000563968
0.000571595
0.000578395
0.000584355
0.000589453
0.000593681
0.000597038
0.000599485
0.000601058
0.000601762
0.000601588
0.000600536
0.00059863
0.000595875
0.000592259
0.000587779
0.000582452
0.000576306
0.000569327
0.000561509
0.000552889
0.000543512
0.000533382
0.000522486
0.000510864
0.000498564
0.000485604
0.000471943
0.000457586
0.000442593
0.000426992
0.00041076
0.000393877
0.00037636
0.000358254
0.000339605
0.000320412
0.000300665
0.000280396
0.000259671
0.00023853
0.000216972
0.000194984
0.000172599
0.00014989
0.000126887
0.000103577
7.99474e-05
5.60271e-05
3.18663e-05
7.5018e-06
-1.70658e-05
-4.18551e-05
-6.68608e-05
-9.20358e-05
-0.000117326
-0.000142712
-0.000168215
-0.000193852
-0.000219595
-0.000245388
-0.000271197
-0.000297021
-0.000322873
-0.000348746
-0.000374597
-0.000400368
-0.000426021
-0.000451551
-0.000476964
-0.000502244
-0.000527351
-0.000552234
-0.000576862
-0.000601245
-0.000625394
-0.000649298
-0.000672913
-0.000696188
-0.000719101
-0.000741663
-0.000763885
-0.000785755
-0.000807239
-0.000828299
-0.00084891
-0.000869066
-0.000888769
-0.00090801
-0.000926759
-0.000944964
-0.00096258
-0.000979595
-0.000996024
-0.00101189
-0.00102717
-0.00104185
-0.00105586
-0.0010692
-0.00108185
-0.00109383
-0.00110515
-0.00111579
-0.00112572
-0.00113493
-0.00114341
-0.00115117
-0.00115823
-0.00116461
-0.0011703
-0.00117528
-0.00117955
-0.0011831
-0.00118597
-0.00118819
-0.00118979
-0.00119078
-0.00119114
-0.00119088
-0.00118999
-0.00118851
-0.00118648
-0.00118394
-0.00118093
-0.00117748
-0.00117359
-0.00116928
-0.00116458
-0.00115954
-0.00115424
-0.00114875
-0.00114309
-0.00113731
-0.00113145
-0.00112555
-0.00111964
-0.00111378
-0.00110803
-0.00110197
-0.0010952
0.000328112
0.000338281
0.000348467
0.000359276
0.000371157
0.000383884
0.000397211
0.000410922
0.000424763
0.000438595
0.000452308
0.000465744
0.000478813
0.000491459
0.000503567
0.000515127
0.000526041
0.000536254
0.000545781
0.000554585
0.000562594
0.000569795
0.00057618
0.000581722
0.000586463
0.000590364
0.00059339
0.000595562
0.000596886
0.00059734
0.000596934
0.000595691
0.000593625
0.000590713
0.000586942
0.000582342
0.000576932
0.000570708
0.000563644
0.000555768
0.000547132
0.00053775
0.000527591
0.000516689
0.000505104
0.000492867
0.000479937
0.000466303
0.000452017
0.000437118
0.000421605
0.000405451
0.000388655
0.000371258
0.000353299
0.000334789
0.00031572
0.000296101
0.000275998
0.000255469
0.000234519
0.000213129
0.000191315
0.000169137
0.000146646
0.00012385
0.000100731
7.73002e-05
5.35993e-05
2.96744e-05
5.54301e-06
-1.88073e-05
-4.33865e-05
-6.81681e-05
-9.30969e-05
-0.000118134
-0.000143288
-0.000168584
-0.000194011
-0.000219523
-0.000245071
-0.000270642
-0.000296245
-0.000321885
-0.000347541
-0.000373159
-0.000398687
-0.000424104
-0.000449416
-0.000474621
-0.000499687
-0.00052456
-0.0005492
-0.000573597
-0.000597766
-0.000621709
-0.000645399
-0.000668786
-0.000691831
-0.00071453
-0.000736898
-0.000758936
-0.000780625
-0.000801923
-0.000822799
-0.000843237
-0.000863238
-0.000882804
-0.000901917
-0.000920533
-0.000938597
-0.000956074
-0.000972966
-0.00098929
-0.00100506
-0.00102025
-0.00103482
-0.00104874
-0.00106199
-0.00107458
-0.00108652
-0.0010978
-0.00110842
-0.00111833
-0.00112753
-0.00113601
-0.00114379
-0.0011509
-0.00115734
-0.00116309
-0.00116814
-0.00117248
-0.00117613
-0.0011791
-0.00118145
-0.00118318
-0.00118431
-0.00118481
-0.00118468
-0.00118393
-0.00118258
-0.00118069
-0.00117828
-0.0011754
-0.00117205
-0.00116825
-0.00116401
-0.00115936
-0.00115436
-0.00114905
-0.0011435
-0.00113774
-0.00113179
-0.00112568
-0.00111945
-0.00111314
-0.00110679
-0.00110046
-0.00109362
-0.00108583
0.000335942
0.000346846
0.000357368
0.000368166
0.000379822
0.000392141
0.000404915
0.000418004
0.000431205
0.000444368
0.000457395
0.000470181
0.000482619
0.000494594
0.000506105
0.000517077
0.000527443
0.000537132
0.000546139
0.000554463
0.000562007
0.000568794
0.000574778
0.000579966
0.000584354
0.000587907
0.00059062
0.000592515
0.00059357
0.000593778
0.000593154
0.000591716
0.000589473
0.00058639
0.000582471
0.000577754
0.000572242
0.000565911
0.000558756
0.000550827
0.000542162
0.000532734
0.000522537
0.000511639
0.000500081
0.00048786
0.000474932
0.000461327
0.000447109
0.00043228
0.000416822
0.000400722
0.000384003
0.000366717
0.000348882
0.000330478
0.000311508
0.000292016
0.000272074
0.000251711
0.000230909
0.000209662
0.000188021
0.000166043
0.000143746
0.000121123
9.8174e-05
7.49302e-05
5.1438e-05
2.77298e-05
3.80338e-06
-2.03592e-05
-4.47486e-05
-6.93161e-05
-9.40139e-05
-0.000118829
-0.000143787
-0.000168897
-0.000194122
-0.000219412
-0.000244737
-0.000270098
-0.000295507
-0.000320954
-0.000346402
-0.000371798
-0.000397104
-0.000422311
-0.000447431
-0.000472443
-0.0004973
-0.000521949
-0.000546365
-0.000570555
-0.000594533
-0.000618285
-0.000641768
-0.000664939
-0.000687777
-0.000710288
-0.000732484
-0.000754357
-0.000775878
-0.000797008
-0.000817719
-0.000838007
-0.000857879
-0.00087733
-0.000896326
-0.000914815
-0.00093275
-0.000950107
-0.000966893
-0.000983127
-0.000998809
-0.00101391
-0.00102839
-0.00104222
-0.0010554
-0.00106794
-0.00107985
-0.00109111
-0.0011017
-0.00111159
-0.00112078
-0.00112926
-0.00113708
-0.00114424
-0.00115074
-0.00115656
-0.00116167
-0.00116608
-0.0011698
-0.00117288
-0.00117534
-0.00117719
-0.00117843
-0.00117905
-0.00117904
-0.00117839
-0.00117716
-0.00117538
-0.00117308
-0.00117029
-0.00116702
-0.00116327
-0.00115907
-0.00115444
-0.00114944
-0.00114409
-0.00113845
-0.00113253
-0.00112637
-0.00111999
-0.00111341
-0.00110668
-0.00109983
-0.00109291
-0.00108532
-0.00107653
0.000342724
0.000354348
0.000365284
0.000376222
0.000387788
0.000399839
0.000412234
0.000424876
0.000437562
0.000450164
0.000462635
0.000474874
0.000486736
0.000498157
0.00050912
0.000519564
0.000529428
0.00053865
0.000547194
0.000555039
0.000562174
0.000568538
0.000574143
0.000578994
0.000583037
0.000586266
0.000588685
0.000590294
0.000591078
0.000591045
0.000590207
0.000588575
0.000586136
0.000582872
0.000578813
0.000573976
0.000568339
0.000561886
0.000554647
0.000546667
0.000537939
0.000528436
0.000518214
0.000507321
0.000495766
0.000483514
0.000470578
0.000457008
0.000442832
0.000428042
0.000412615
0.000396561
0.000379917
0.000362724
0.000344974
0.000326644
0.000307765
0.000288403
0.000268606
0.000248373
0.000227688
0.000206579
0.000185106
0.000163304
0.000141168
0.000118691
9.58986e-05
7.28332e-05
4.95367e-05
2.60207e-05
2.26734e-06
-2.17308e-05
-4.59403e-05
-7.03033e-05
-9.47948e-05
-0.000119428
-0.000144221
-0.000169158
-0.000194188
-0.000219272
-0.000244398
-0.000269576
-0.000294811
-0.000320078
-0.000345327
-0.000370516
-0.000395622
-0.000420647
-0.000445593
-0.000470423
-0.000495077
-0.000519514
-0.00054373
-0.000567738
-0.000591541
-0.000615109
-0.000638395
-0.000661369
-0.000684025
-0.000706372
-0.000728418
-0.000750144
-0.000771513
-0.000792488
-0.000813055
-0.000833219
-0.000852983
-0.000872331
-0.00089122
-0.000909593
-0.000927409
-0.000944663
-0.000961364
-0.000977522
-0.000993125
-0.00100814
-0.00102254
-0.00103629
-0.00104942
-0.00106192
-0.00107381
-0.00108505
-0.00109562
-0.00110549
-0.00111467
-0.00112318
-0.00113104
-0.00113825
-0.00114481
-0.00115067
-0.00115584
-0.00116031
-0.00116411
-0.00116728
-0.00116984
-0.00117179
-0.00117314
-0.00117385
-0.00117393
-0.00117338
-0.00117224
-0.00117054
-0.00116833
-0.00116561
-0.00116239
-0.00115867
-0.00115447
-0.00114984
-0.00114481
-0.00113939
-0.00113362
-0.00112752
-0.00112112
-0.00111444
-0.00110751
-0.00110034
-0.00109299
-0.00108549
-0.00107715
-0.00106741
0.00034871
0.000361084
0.000372462
0.000383595
0.000395189
0.000407118
0.000419255
0.00043156
0.000443851
0.00045603
0.000468022
0.000479766
0.00049115
0.000502117
0.000512581
0.000522545
0.000531951
0.000540723
0.000548862
0.000556277
0.000563006
0.000569
0.000574251
0.000578745
0.000582455
0.000585381
0.000587515
0.00058884
0.000589362
0.000589095
0.000588047
0.00058621
0.000583566
0.000580135
0.000575936
0.000570957
0.000565176
0.00055861
0.000551295
0.000543236
0.000534411
0.000524842
0.0005146
0.000503693
0.000492099
0.000479808
0.00046687
0.00045332
0.000439158
0.000424374
0.000408961
0.000392953
0.000376381
0.000359252
0.000341547
0.000323272
0.000304486
0.000285249
0.000265566
0.000245427
0.000224845
0.000203873
0.000182556
0.000160903
0.000138899
0.000116553
9.39079e-05
7.10099e-05
4.78868e-05
2.45298e-05
9.19421e-07
-2.29294e-05
-4.69649e-05
-7.11407e-05
-9.54584e-05
-0.000119941
-0.000144589
-0.000169362
-0.000194211
-0.000219109
-0.000244063
-0.000269082
-0.000294158
-0.000319251
-0.000344314
-0.000369313
-0.000394246
-0.000419114
-0.000443899
-0.00046855
-0.000493011
-0.000517255
-0.000541296
-0.000565143
-0.00058878
-0.000612171
-0.000635274
-0.000658073
-0.000680571
-0.00070278
-0.000724694
-0.000746286
-0.000767517
-0.000788357
-0.0008088
-0.00082886
-0.000848537
-0.000867793
-0.000886577
-0.000904841
-0.000922557
-0.000939725
-0.000956357
-0.00097245
-0.000987984
-0.00100292
-0.00101725
-0.00103095
-0.00104403
-0.00105652
-0.00106838
-0.00107961
-0.00109016
-0.00110001
-0.0011092
-0.00111773
-0.00112564
-0.00113291
-0.00113951
-0.00114543
-0.00115064
-0.00115517
-0.00115905
-0.0011623
-0.00116494
-0.00116698
-0.00116841
-0.0011692
-0.00116935
-0.00116888
-0.00116781
-0.0011662
-0.00116405
-0.00116137
-0.00115818
-0.00115446
-0.00115025
-0.00114558
-0.00114049
-0.00113498
-0.00112907
-0.00112276
-0.0011161
-0.00110911
-0.0011018
-0.0010942
-0.00108634
-0.00107827
-0.00106921
-0.00105855
0.000354141
0.000367261
0.000379089
0.000390456
0.000402156
0.000414064
0.000426055
0.000438077
0.000450096
0.00046194
0.000473537
0.000484876
0.000495869