/*--------------------------------*- C++ -*----------------------------------*\
  =========                 |
  \\      /  F ield         | OpenFOAM: The Open Source CFD Toolbox
   \\    /   O peration     | Website:  https://openfoam.org
    \\  /    A nd           | Version:  7
     \\/     M anipulation  |
\*---------------------------------------------------------------------------*/
FoamFile
{
    version     2.0;
    format      ascii;
    class       volVectorField;
    location    "0.175";
    object      U;
}
// * * * * * * * * * * * * * * * * * * * * * * * * * * * * * * * * * * * * * //

dimensions      [0 1 -1 0 0 0 0];

internalField   nonuniform List<vector> 
51200
(
(1.26169e-07 2.04092e-07 0)
(-1.65942e-07 2.52937e-07 0)
(-2.51199e-07 6.81711e-08 0)
(-3.9568e-07 1.72605e-08 0)
(-3.73852e-07 -9.10747e-09 0)
(-3.30275e-07 -2.36496e-08 0)
(-2.60575e-07 -3.2789e-08 0)
(-1.66444e-07 -3.88519e-08 0)
(-4.52646e-08 -4.54353e-08 0)
(1.00996e-07 -4.98834e-08 0)
(2.75621e-07 -5.61786e-08 0)
(4.76934e-07 -6.28044e-08 0)
(7.06262e-07 -6.91972e-08 0)
(9.61602e-07 -7.61585e-08 0)
(1.24397e-06 -8.29235e-08 0)
(1.55162e-06 -8.8978e-08 0)
(1.88288e-06 -9.58906e-08 0)
(2.2367e-06 -1.01882e-07 0)
(2.61228e-06 -1.0685e-07 0)
(3.00538e-06 -1.12276e-07 0)
(3.41739e-06 -1.1739e-07 0)
(3.84612e-06 -1.21364e-07 0)
(4.2883e-06 -1.26624e-07 0)
(4.74504e-06 -1.30883e-07 0)
(5.21451e-06 -1.33397e-07 0)
(5.69349e-06 -1.36377e-07 0)
(6.18069e-06 -1.38948e-07 0)
(6.67703e-06 -1.40669e-07 0)
(7.17859e-06 -1.42203e-07 0)
(7.68444e-06 -1.43559e-07 0)
(8.19496e-06 -1.43604e-07 0)
(8.708e-06 -1.42903e-07 0)
(9.22196e-06 -1.43273e-07 0)
(9.73657e-06 -1.44581e-07 0)
(1.02515e-05 -1.4517e-07 0)
(1.07649e-05 -1.45167e-07 0)
(1.12758e-05 -1.44994e-07 0)
(1.17842e-05 -1.43677e-07 0)
(1.2289e-05 -1.41484e-07 0)
(1.2789e-05 -1.3974e-07 0)
(1.32834e-05 -1.38732e-07 0)
(1.37726e-05 -1.37592e-07 0)
(1.42555e-05 -1.35663e-07 0)
(1.47308e-05 -1.33438e-07 0)
(1.51982e-05 -1.3135e-07 0)
(1.56577e-05 -1.29183e-07 0)
(1.61087e-05 -1.26718e-07 0)
(1.65504e-05 -1.23797e-07 0)
(1.69824e-05 -1.21033e-07 0)
(1.74041e-05 -1.18284e-07 0)
(1.78156e-05 -1.15274e-07 0)
(1.82165e-05 -1.12157e-07 0)
(1.86059e-05 -1.08993e-07 0)
(1.89839e-05 -1.05698e-07 0)
(1.93503e-05 -1.02099e-07 0)
(1.97046e-05 -9.84439e-08 0)
(2.00465e-05 -9.50334e-08 0)
(2.03759e-05 -9.16554e-08 0)
(2.06926e-05 -8.80502e-08 0)
(2.09962e-05 -8.42419e-08 0)
(2.12863e-05 -8.03436e-08 0)
(2.15631e-05 -7.65743e-08 0)
(2.18265e-05 -7.29933e-08 0)
(2.20763e-05 -6.92539e-08 0)
(2.23122e-05 -6.50507e-08 0)
(2.25341e-05 -6.06604e-08 0)
(2.27415e-05 -5.64536e-08 0)
(2.29346e-05 -5.24642e-08 0)
(2.31137e-05 -4.85335e-08 0)
(2.32786e-05 -4.45406e-08 0)
(2.3429e-05 -4.04867e-08 0)
(2.35647e-05 -3.63515e-08 0)
(2.36855e-05 -3.21512e-08 0)
(2.37916e-05 -2.79143e-08 0)
(2.38829e-05 -2.36015e-08 0)
(2.39596e-05 -1.92427e-08 0)
(2.40217e-05 -1.49912e-08 0)
(2.40689e-05 -1.08924e-08 0)
(2.41009e-05 -6.79239e-09 0)
(2.4118e-05 -2.55792e-09 0)
(2.41201e-05 1.75812e-09 0)
(2.41073e-05 6.00285e-09 0)
(2.40796e-05 1.01522e-08 0)
(2.40372e-05 1.43297e-08 0)
(2.39798e-05 1.86164e-08 0)
(2.39072e-05 2.29556e-08 0)
(2.38194e-05 2.72087e-08 0)
(2.37168e-05 3.13256e-08 0)
(2.35996e-05 3.5394e-08 0)
(2.34678e-05 3.95108e-08 0)
(2.33215e-05 4.36911e-08 0)
(2.31604e-05 4.79137e-08 0)
(2.29844e-05 5.2129e-08 0)
(2.27939e-05 5.62321e-08 0)
(2.2589e-05 6.02193e-08 0)
(2.23701e-05 6.41658e-08 0)
(2.21373e-05 6.8086e-08 0)
(2.18907e-05 7.20007e-08 0)
(2.16299e-05 7.59436e-08 0)
(2.13552e-05 7.99071e-08 0)
(2.10668e-05 8.38947e-08 0)
(2.0765e-05 8.7872e-08 0)
(2.045e-05 9.17117e-08 0)
(2.01223e-05 9.5329e-08 0)
(1.9782e-05 9.87621e-08 0)
(1.94292e-05 1.02139e-07 0)
(1.90641e-05 1.05605e-07 0)
(1.86869e-05 1.09174e-07 0)
(1.8298e-05 1.12698e-07 0)
(1.78977e-05 1.1602e-07 0)
(1.74865e-05 1.19068e-07 0)
(1.70649e-05 1.2187e-07 0)
(1.66333e-05 1.2455e-07 0)
(1.6192e-05 1.27216e-07 0)
(1.57415e-05 1.29876e-07 0)
(1.52821e-05 1.32458e-07 0)
(1.48143e-05 1.34858e-07 0)
(1.43387e-05 1.37006e-07 0)
(1.3856e-05 1.38911e-07 0)
(1.33669e-05 1.40609e-07 0)
(1.28721e-05 1.42126e-07 0)
(1.23721e-05 1.43486e-07 0)
(1.18677e-05 1.44673e-07 0)
(1.13595e-05 1.45653e-07 0)
(1.08483e-05 1.46422e-07 0)
(1.03347e-05 1.46984e-07 0)
(9.81976e-06 1.47317e-07 0)
(9.30427e-06 1.47387e-07 0)
(8.78926e-06 1.47161e-07 0)
(8.27579e-06 1.46609e-07 0)
(7.76492e-06 1.45717e-07 0)
(7.25771e-06 1.44508e-07 0)
(6.75523e-06 1.43012e-07 0)
(6.25858e-06 1.41241e-07 0)
(5.76889e-06 1.39174e-07 0)
(5.28743e-06 1.36738e-07 0)
(4.81558e-06 1.33856e-07 0)
(4.35482e-06 1.30494e-07 0)
(3.90669e-06 1.26651e-07 0)
(3.47278e-06 1.2234e-07 0)
(3.0546e-06 1.17553e-07 0)
(2.65377e-06 1.12278e-07 0)
(2.27196e-06 1.06518e-07 0)
(1.91087e-06 1.00246e-07 0)
(1.57218e-06 9.34234e-08 0)
(1.25766e-06 8.60178e-08 0)
(9.69097e-07 7.80065e-08 0)
(7.08317e-07 6.93926e-08 0)
(4.77137e-07 6.01688e-08 0)
(2.77325e-07 5.03152e-08 0)
(1.10489e-07 3.98582e-08 0)
(-2.2032e-08 2.88929e-08 0)
(-1.19296e-07 1.75612e-08 0)
(-1.80939e-07 6.04229e-09 0)
(-2.07499e-07 -5.33664e-09 0)
(-2.00937e-07 -1.58968e-08 0)
(-1.65467e-07 -2.44036e-08 0)
(-1.09142e-07 -2.86626e-08 0)
(-4.86716e-08 -2.49767e-08 0)
(-9.82944e-09 -9.96653e-09 0)
(1.56401e-07 8.10997e-08 0)
(6.95765e-08 4.12875e-07 0)
(-1.68503e-07 1.70846e-07 0)
(-2.90383e-07 5.74851e-08 0)
(-2.92486e-07 -2.30257e-08 0)
(-2.13663e-07 -8.58323e-08 0)
(-5.60266e-08 -1.4483e-07 0)
(1.84609e-07 -2.00752e-07 0)
(5.08348e-07 -2.56332e-07 0)
(9.20324e-07 -3.12687e-07 0)
(1.41304e-06 -3.68826e-07 0)
(1.99024e-06 -4.23586e-07 0)
(2.64911e-06 -4.79727e-07 0)
(3.38555e-06 -5.33026e-07 0)
(4.19811e-06 -5.8371e-07 0)
(5.08349e-06 -6.33751e-07 0)
(6.03726e-06 -6.79593e-07 0)
(7.05627e-06 -7.22771e-07 0)
(8.13384e-06 -7.62743e-07 0)
(9.26791e-06 -8.00481e-07 0)
(1.0454e-05 -8.32638e-07 0)
(1.16856e-05 -8.65612e-07 0)
(1.29603e-05 -8.93221e-07 0)
(1.42751e-05 -9.19283e-07 0)
(1.56218e-05 -9.4145e-07 0)
(1.69989e-05 -9.60849e-07 0)
(1.84037e-05 -9.76874e-07 0)
(1.9829e-05 -9.90469e-07 0)
(2.12729e-05 -1.00206e-06 0)
(2.27315e-05 -1.01101e-06 0)
(2.42005e-05 -1.01699e-06 0)
(2.56777e-05 -1.02056e-06 0)
(2.71602e-05 -1.02264e-06 0)
(2.86448e-05 -1.02289e-06 0)
(3.01286e-05 -1.02136e-06 0)
(3.16094e-05 -1.01881e-06 0)
(3.30837e-05 -1.01465e-06 0)
(3.45496e-05 -1.00761e-06 0)
(3.60051e-05 -9.98609e-07 0)
(3.74476e-05 -9.8891e-07 0)
(3.88758e-05 -9.78293e-07 0)
(4.02871e-05 -9.66223e-07 0)
(4.16799e-05 -9.52699e-07 0)
(4.3052e-05 -9.37819e-07 0)
(4.44019e-05 -9.22172e-07 0)
(4.57282e-05 -9.05568e-07 0)
(4.70299e-05 -8.87803e-07 0)
(4.83051e-05 -8.68818e-07 0)
(4.95519e-05 -8.49292e-07 0)
(5.07696e-05 -8.28899e-07 0)
(5.19577e-05 -8.07637e-07 0)
(5.31149e-05 -7.86097e-07 0)
(5.42394e-05 -7.63874e-07 0)
(5.53306e-05 -7.40519e-07 0)
(5.63878e-05 -7.16296e-07 0)
(5.74104e-05 -6.91883e-07 0)
(5.83976e-05 -6.67483e-07 0)
(5.93487e-05 -6.42595e-07 0)
(6.02626e-05 -6.16845e-07 0)
(6.11389e-05 -5.90456e-07 0)
(6.19773e-05 -5.63795e-07 0)
(6.27769e-05 -5.37249e-07 0)
(6.35374e-05 -5.1075e-07 0)
(6.42585e-05 -4.83613e-07 0)
(6.49398e-05 -4.55473e-07 0)
(6.55803e-05 -4.26963e-07 0)
(6.61797e-05 -3.98645e-07 0)
(6.67379e-05 -3.70409e-07 0)
(6.72553e-05 -3.4204e-07 0)
(6.77312e-05 -3.13407e-07 0)
(6.81652e-05 -2.84463e-07 0)
(6.85567e-05 -2.55265e-07 0)
(6.89055e-05 -2.26e-07 0)
(6.92119e-05 -1.96792e-07 0)
(6.94758e-05 -1.6752e-07 0)
(6.96971e-05 -1.37998e-07 0)
(6.98751e-05 -1.0827e-07 0)
(7.00098e-05 -7.84834e-08 0)
(7.01012e-05 -4.86612e-08 0)
(7.01496e-05 -1.88909e-08 0)
(7.01548e-05 1.06887e-08 0)
(7.01166e-05 4.01267e-08 0)
(7.0035e-05 6.96917e-08 0)
(6.99101e-05 9.96285e-08 0)
(6.97419e-05 1.29799e-07 0)
(6.95304e-05 1.59812e-07 0)
(6.92756e-05 1.89411e-07 0)
(6.89777e-05 2.18636e-07 0)
(6.86371e-05 2.47743e-07 0)
(6.82539e-05 2.76974e-07 0)
(6.78282e-05 3.06366e-07 0)
(6.73601e-05 3.35716e-07 0)
(6.68495e-05 3.64828e-07 0)
(6.62967e-05 3.93508e-07 0)
(6.57024e-05 4.21768e-07 0)
(6.50671e-05 4.49822e-07 0)
(6.43914e-05 4.77705e-07 0)
(6.36755e-05 5.05361e-07 0)
(6.29193e-05 5.32839e-07 0)
(6.21231e-05 5.60124e-07 0)
(6.12877e-05 5.87141e-07 0)
(6.04136e-05 6.1379e-07 0)
(5.95018e-05 6.39854e-07 0)
(5.85529e-05 6.652e-07 0)
(5.75676e-05 6.89938e-07 0)
(5.65464e-05 7.14258e-07 0)
(5.54901e-05 7.38298e-07 0)
(5.43993e-05 7.62012e-07 0)
(5.32749e-05 7.85123e-07 0)
(5.21182e-05 8.07348e-07 0)
(5.09302e-05 8.2855e-07 0)
(4.97122e-05 8.48745e-07 0)
(4.84653e-05 8.68107e-07 0)
(4.7191e-05 8.86802e-07 0)
(4.58902e-05 9.04797e-07 0)
(4.45643e-05 9.21911e-07 0)
(4.32145e-05 9.3793e-07 0)
(4.18426e-05 9.52688e-07 0)
(4.04505e-05 9.66119e-07 0)
(3.90401e-05 9.78217e-07 0)
(3.76133e-05 9.88988e-07 0)
(3.61718e-05 9.98463e-07 0)
(3.47176e-05 1.00664e-06 0)
(3.32527e-05 1.01342e-06 0)
(3.17792e-05 1.0187e-06 0)
(3.02995e-05 1.02236e-06 0)
(2.88163e-05 1.02427e-06 0)
(2.73322e-05 1.02426e-06 0)
(2.58499e-05 1.02221e-06 0)
(2.43723e-05 1.01806e-06 0)
(2.29022e-05 1.01178e-06 0)
(2.14429e-05 1.00338e-06 0)
(1.99974e-05 9.92869e-07 0)
(1.85692e-05 9.80118e-07 0)
(1.71615e-05 9.64929e-07 0)
(1.57781e-05 9.47071e-07 0)
(1.44228e-05 9.26362e-07 0)
(1.30997e-05 9.02707e-07 0)
(1.1813e-05 8.76039e-07 0)
(1.0567e-05 8.4629e-07 0)
(9.36597e-06 8.13388e-07 0)
(8.21444e-06 7.77268e-07 0)
(7.11692e-06 7.37879e-07 0)
(6.07797e-06 6.95153e-07 0)
(5.1022e-06 6.49007e-07 0)
(4.19431e-06 5.99379e-07 0)
(3.35903e-06 5.46233e-07 0)
(2.60101e-06 4.89591e-07 0)
(1.92468e-06 4.29552e-07 0)
(1.33413e-06 3.66337e-07 0)
(8.32847e-07 3.00362e-07 0)
(4.23468e-07 2.32323e-07 0)
(1.07395e-07 1.63259e-07 0)
(-1.15664e-07 9.46618e-08 0)
(-2.48547e-07 2.88004e-08 0)
(-2.9775e-07 -3.07754e-08 0)
(-2.74751e-07 -7.84932e-08 0)
(-1.98087e-07 -1.05693e-07 0)
(-9.94025e-08 -9.98533e-08 0)
(-2.45283e-08 -4.83935e-08 0)
(1.17854e-08 1.74436e-07 0)
(-6.38731e-08 4.13542e-07 0)
(-1.29708e-07 2.52077e-07 0)
(-1.57872e-07 7.53229e-08 0)
(-8.70916e-08 -8.69045e-08 0)
(9.53809e-08 -2.47855e-07 0)
(3.98119e-07 -4.09679e-07 0)
(8.24327e-07 -5.74867e-07 0)
(1.3841e-06 -7.40665e-07 0)
(2.07191e-06 -9.08287e-07 0)
(2.89575e-06 -1.07288e-06 0)
(3.84878e-06 -1.23652e-06 0)
(4.92933e-06 -1.39551e-06 0)
(6.13664e-06 -1.54904e-06 0)
(7.46084e-06 -1.69818e-06 0)
(8.89981e-06 -1.8385e-06 0)
(1.04488e-05 -1.97078e-06 0)
(1.20984e-05 -2.09634e-06 0)
(1.38439e-05 -2.21139e-06 0)
(1.56796e-05 -2.3174e-06 0)
(1.75953e-05 -2.41651e-06 0)
(1.95872e-05 -2.50539e-06 0)
(2.1648e-05 -2.58644e-06 0)
(2.37677e-05 -2.65977e-06 0)
(2.59448e-05 -2.72461e-06 0)
(2.81683e-05 -2.77955e-06 0)
(3.04324e-05 -2.82747e-06 0)
(3.27339e-05 -2.86756e-06 0)
(3.50646e-05 -2.89993e-06 0)
(3.74186e-05 -2.92638e-06 0)
(3.9791e-05 -2.94599e-06 0)
(4.21769e-05 -2.95865e-06 0)
(4.45701e-05 -2.9654e-06 0)
(4.69664e-05 -2.96614e-06 0)
(4.9363e-05 -2.96143e-06 0)
(5.17536e-05 -2.95244e-06 0)
(5.41349e-05 -2.93873e-06 0)
(5.65029e-05 -2.9197e-06 0)
(5.88536e-05 -2.89597e-06 0)
(6.11841e-05 -2.86825e-06 0)
(6.34903e-05 -2.83705e-06 0)
(6.57701e-05 -2.80181e-06 0)
(6.802e-05 -2.76237e-06 0)
(7.02365e-05 -2.7196e-06 0)
(7.24172e-05 -2.67419e-06 0)
(7.45603e-05 -2.62581e-06 0)
(7.66636e-05 -2.57409e-06 0)
(7.87235e-05 -2.51977e-06 0)
(8.0738e-05 -2.463e-06 0)
(8.27062e-05 -2.40372e-06 0)
(8.46263e-05 -2.34245e-06 0)
(8.64959e-05 -2.27953e-06 0)
(8.83133e-05 -2.21452e-06 0)
(9.00772e-05 -2.14721e-06 0)
(9.17863e-05 -2.07821e-06 0)
(9.34394e-05 -2.00799e-06 0)
(9.50351e-05 -1.93658e-06 0)
(9.65722e-05 -1.86375e-06 0)
(9.80494e-05 -1.78918e-06 0)
(9.94662e-05 -1.71302e-06 0)
(0.000100821 -1.63606e-06 0)
(0.000102114 -1.5588e-06 0)
(0.000103343 -1.4808e-06 0)
(0.000104509 -1.4013e-06 0)
(0.000105609 -1.3204e-06 0)
(0.000106644 -1.23884e-06 0)
(0.000107613 -1.15706e-06 0)
(0.000108516 -1.07498e-06 0)
(0.000109352 -9.92385e-07 0)
(0.000110121 -9.08955e-07 0)
(0.000110821 -8.24546e-07 0)
(0.000111453 -7.3958e-07 0)
(0.000112016 -6.54583e-07 0)
(0.000112511 -5.6966e-07 0)
(0.000112937 -4.84606e-07 0)
(0.000113293 -3.99127e-07 0)
(0.000113579 -3.13051e-07 0)
(0.000113796 -2.26465e-07 0)
(0.000113942 -1.39639e-07 0)
(0.000114018 -5.30104e-08 0)
(0.000114025 3.31167e-08 0)
(0.000113961 1.18995e-07 0)
(0.000113827 2.05199e-07 0)
(0.000113623 2.92043e-07 0)
(0.000113349 3.79225e-07 0)
(0.000113005 4.661e-07 0)
(0.000112591 5.52211e-07 0)
(0.000112107 6.37537e-07 0)
(0.000111554 7.22484e-07 0)
(0.000110932 8.07509e-07 0)
(0.00011024 8.92755e-07 0)
(0.00010948 9.77806e-07 0)
(0.000108652 1.06211e-06 0)
(0.000107756 1.14535e-06 0)
(0.000106792 1.22757e-06 0)
(0.000105763 1.3091e-06 0)
(0.000104667 1.39016e-06 0)
(0.000103506 1.47071e-06 0)
(0.00010228 1.55062e-06 0)
(0.00010099 1.62963e-06 0)
(9.96366e-05 1.7074e-06 0)
(9.82215e-05 1.78379e-06 0)
(9.67452e-05 1.85873e-06 0)
(9.52089e-05 1.93226e-06 0)
(9.36135e-05 2.00448e-06 0)
(9.19603e-05 2.07544e-06 0)
(9.02505e-05 2.145e-06 0)
(8.84856e-05 2.21292e-06 0)
(8.6667e-05 2.27888e-06 0)
(8.47964e-05 2.34253e-06 0)
(8.28754e-05 2.4037e-06 0)
(8.0906e-05 2.46242e-06 0)
(7.88902e-05 2.5188e-06 0)
(7.68299e-05 2.57293e-06 0)
(7.47273e-05 2.6246e-06 0)
(7.25842e-05 2.67348e-06 0)
(7.04033e-05 2.7192e-06 0)
(6.81871e-05 2.76148e-06 0)
(6.59386e-05 2.8001e-06 0)
(6.36606e-05 2.83497e-06 0)
(6.13563e-05 2.86606e-06 0)
(5.90285e-05 2.89336e-06 0)
(5.66804e-05 2.91673e-06 0)
(5.43154e-05 2.93592e-06 0)
(5.19371e-05 2.95062e-06 0)
(4.95495e-05 2.96049e-06 0)
(4.71565e-05 2.96523e-06 0)
(4.47626e-05 2.9645e-06 0)
(4.2372e-05 2.95802e-06 0)
(3.99892e-05 2.94563e-06 0)
(3.7619e-05 2.92719e-06 0)
(3.52664e-05 2.90262e-06 0)
(3.29365e-05 2.87171e-06 0)
(3.06347e-05 2.83412e-06 0)
(2.83665e-05 2.78938e-06 0)
(2.61378e-05 2.73705e-06 0)
(2.39547e-05 2.67676e-06 0)
(2.18234e-05 2.60826e-06 0)
(1.97506e-05 2.53129e-06 0)
(1.77429e-05 2.44568e-06 0)
(1.5807e-05 2.35124e-06 0)
(1.39499e-05 2.24783e-06 0)
(1.21786e-05 2.13527e-06 0)
(1.05001e-05 2.01343e-06 0)
(8.92144e-06 1.88221e-06 0)
(7.44981e-06 1.74155e-06 0)
(6.09223e-06 1.59154e-06 0)
(4.85542e-06 1.43241e-06 0)
(3.74569e-06 1.26464e-06 0)
(2.76866e-06 1.08912e-06 0)
(1.92891e-06 9.07235e-07 0)
(1.22968e-06 7.21069e-07 0)
(6.72222e-07 5.336e-07 0)
(2.55157e-07 3.4906e-07 0)
(-2.64798e-08 1.73515e-07 0)
(-1.82608e-07 1.57677e-08 0)
(-2.29377e-07 -1.11536e-07 0)
(-1.9097e-07 -1.90705e-07 0)
(-1.05653e-07 -1.98523e-07 0)
(-2.84477e-08 -1.08494e-07 0)
(-2.50412e-09 1.25826e-07 0)
(-3.6955e-08 4.08534e-07 0)
(-1.29017e-08 2.34491e-07 0)
(6.81579e-08 -1.69359e-08 0)
(2.71088e-07 -2.84534e-07 0)
(6.12237e-07 -5.71776e-07 0)
(1.10573e-06 -8.72795e-07 0)
(1.76302e-06 -1.1849e-06 0)
(2.58475e-06 -1.50513e-06 0)
(3.58306e-06 -1.82474e-06 0)
(4.74894e-06 -2.14498e-06 0)
(6.08674e-06 -2.45931e-06 0)
(7.59368e-06 -2.76517e-06 0)
(9.2605e-06 -3.06322e-06 0)
(1.10862e-05 -3.34797e-06 0)
(1.30628e-05 -3.6191e-06 0)
(1.51812e-05 -3.87724e-06 0)
(1.74361e-05 -4.11705e-06 0)
(1.98186e-05 -4.34188e-06 0)
(2.23174e-05 -4.54944e-06 0)
(2.49271e-05 -4.74108e-06 0)
(2.76372e-05 -4.91342e-06 0)
(3.04363e-05 -5.07263e-06 0)
(3.33192e-05 -5.21304e-06 0)
(3.62748e-05 -5.33787e-06 0)
(3.92944e-05 -5.44786e-06 0)
(4.23702e-05 -5.54102e-06 0)
(4.54936e-05 -5.61884e-06 0)
(4.86565e-05 -5.68302e-06 0)
(5.18515e-05 -5.73376e-06 0)
(5.50726e-05 -5.77162e-06 0)
(5.83107e-05 -5.79787e-06 0)
(6.156e-05 -5.81206e-06 0)
(6.48145e-05 -5.81417e-06 0)
(6.80667e-05 -5.80593e-06 0)
(7.13121e-05 -5.78803e-06 0)
(7.45447e-05 -5.76027e-06 0)
(7.77598e-05 -5.72315e-06 0)
(8.09521e-05 -5.6775e-06 0)
(8.41164e-05 -5.62406e-06 0)
(8.72488e-05 -5.56261e-06 0)
(9.03447e-05 -5.49313e-06 0)
(9.34e-05 -5.41642e-06 0)
(9.64104e-05 -5.33358e-06 0)
(9.9373e-05 -5.24446e-06 0)
(0.000102285 -5.14912e-06 0)
(0.000105142 -5.04811e-06 0)
(0.00010794 -4.94205e-06 0)
(0.000110678 -4.83088e-06 0)
(0.000113353 -4.71506e-06 0)
(0.000115962 -4.59532e-06 0)
(0.000118503 -4.4715e-06 0)
(0.000120973 -4.34346e-06 0)
(0.000123371 -4.21164e-06 0)
(0.000125695 -4.07684e-06 0)
(0.000127942 -3.93942e-06 0)
(0.000130112 -3.79927e-06 0)
(0.000132201 -3.65603e-06 0)
(0.00013421 -3.50961e-06 0)
(0.000136136 -3.36075e-06 0)
(0.000137978 -3.21049e-06 0)
(0.000139736 -3.05877e-06 0)
(0.000141407 -2.90476e-06 0)
(0.000142992 -2.74823e-06 0)
(0.000144488 -2.58976e-06 0)
(0.000145894 -2.43012e-06 0)
(0.000147212 -2.2697e-06 0)
(0.000148439 -2.10842e-06 0)
(0.000149575 -1.94589e-06 0)
(0.000150619 -1.78182e-06 0)
(0.00015157 -1.6163e-06 0)
(0.000152428 -1.44991e-06 0)
(0.000153192 -1.28314e-06 0)
(0.000153863 -1.11603e-06 0)
(0.00015444 -9.48462e-07 0)
(0.000154923 -7.80217e-07 0)
(0.00015531 -6.111e-07 0)
(0.000155601 -4.41228e-07 0)
(0.000155798 -2.71079e-07 0)
(0.0001559 -1.01219e-07 0)
(0.000155906 6.81673e-08 0)
(0.000155816 2.37498e-07 0)
(0.000155631 4.07344e-07 0)
(0.00015535 5.77797e-07 0)
(0.000154974 7.48367e-07 0)
(0.000154503 9.18359e-07 0)
(0.000153936 1.08734e-06 0)
(0.000153275 1.25533e-06 0)
(0.000152519 1.42275e-06 0)
(0.00015167 1.59004e-06 0)
(0.000150726 1.75725e-06 0)
(0.000149689 1.92377e-06 0)
(0.000148559 2.08894e-06 0)
(0.000147336 2.25242e-06 0)
(0.000146023 2.41418e-06 0)
(0.000144619 2.57446e-06 0)
(0.000143125 2.73356e-06 0)
(0.000141542 2.89151e-06 0)
(0.000139871 3.04809e-06 0)
(0.000138112 3.20287e-06 0)
(0.000136269 3.35524e-06 0)
(0.000134341 3.5048e-06 0)
(0.00013233 3.65153e-06 0)
(0.000130238 3.79554e-06 0)
(0.000128065 3.93706e-06 0)
(0.000125814 4.07608e-06 0)
(0.000123486 4.21221e-06 0)
(0.000121083 4.3449e-06 0)
(0.000118608 4.47357e-06 0)
(0.000116063 4.59778e-06 0)
(0.000113449 4.71735e-06 0)
(0.00011077 4.83236e-06 0)
(0.000108027 4.94284e-06 0)
(0.000105225 5.04866e-06 0)
(0.000102365 5.14942e-06 0)
(9.94501e-05 5.24455e-06 0)
(9.64846e-05 5.33348e-06 0)
(9.34718e-05 5.41573e-06 0)
(9.04153e-05 5.49095e-06 0)
(8.73192e-05 5.55897e-06 0)
(8.41874e-05 5.61964e-06 0)
(8.10241e-05 5.67275e-06 0)
(7.78336e-05 5.71797e-06 0)
(7.46206e-05 5.75481e-06 0)
(7.13902e-05 5.78273e-06 0)
(6.81477e-05 5.80116e-06 0)
(6.48985e-05 5.80951e-06 0)
(6.16484e-05 5.80725e-06 0)
(5.84032e-05 5.7939e-06 0)
(5.5169e-05 5.76908e-06 0)
(5.19523e-05 5.73252e-06 0)
(4.87597e-05 5.6839e-06 0)
(4.55983e-05 5.62276e-06 0)
(4.24752e-05 5.54842e-06 0)
(3.93979e-05 5.46013e-06 0)
(3.63742e-05 5.35718e-06 0)
(3.34124e-05 5.23898e-06 0)
(3.05206e-05 5.10506e-06 0)
(2.77074e-05 4.95497e-06 0)
(2.49817e-05 4.78836e-06 0)
(2.23522e-05 4.60494e-06 0)
(1.9828e-05 4.40441e-06 0)
(1.74182e-05 4.18654e-06 0)
(1.5132e-05 3.95113e-06 0)
(1.29783e-05 3.6981e-06 0)
(1.09664e-05 3.42755e-06 0)
(9.10497e-06 3.13979e-06 0)
(7.40237e-06 2.8355e-06 0)
(5.86623e-06 2.51588e-06 0)
(4.50316e-06 2.18284e-06 0)
(3.31845e-06 1.8392e-06 0)
(2.31552e-06 1.48901e-06 0)
(1.49541e-06 1.1379e-06 0)
(8.55894e-07 7.93638e-07 0)
(3.9052e-07 4.6697e-07 0)
(8.73824e-08 1.72797e-07 0)
(-7.19963e-08 -6.84889e-08 0)
(-1.14321e-07 -2.29635e-07 0)
(-7.97831e-08 -2.76072e-07 0)
(-2.46095e-08 -1.65075e-07 0)
(3.92757e-09 1.65356e-07 0)
(2.54622e-08 3.72346e-07 0)
(1.457e-07 1.25882e-07 0)
(3.65199e-07 -2.33553e-07 0)
(7.23654e-07 -6.41643e-07 0)
(1.25664e-06 -1.08697e-06 0)
(1.9763e-06 -1.56261e-06 0)
(2.88936e-06 -2.0572e-06 0)
(4.01084e-06 -2.56206e-06 0)
(5.33321e-06 -3.07463e-06 0)
(6.86442e-06 -3.58301e-06 0)
(8.60007e-06 -4.08457e-06 0)
(1.05353e-05 -4.57594e-06 0)
(1.26683e-05 -5.04985e-06 0)
(1.49891e-05 -5.50572e-06 0)
(1.74905e-05 -5.94178e-06 0)
(2.01662e-05 -6.35309e-06 0)
(2.30055e-05 -6.74024e-06 0)
(2.59973e-05 -7.10166e-06 0)
(2.91337e-05 -7.43644e-06 0)
(3.24033e-05 -7.74387e-06 0)
(3.5794e-05 -8.02578e-06 0)
(3.92958e-05 -8.27944e-06 0)
(4.28983e-05 -8.50728e-06 0)
(4.65895e-05 -8.70923e-06 0)
(5.036e-05 -8.88579e-06 0)
(5.41998e-05 -9.03747e-06 0)
(5.80976e-05 -9.16547e-06 0)
(6.20441e-05 -9.27001e-06 0)
(6.6031e-05 -9.35216e-06 0)
(7.00478e-05 -9.41388e-06 0)
(7.40871e-05 -9.45583e-06 0)
(7.81406e-05 -9.47847e-06 0)
(8.22001e-05 -9.48325e-06 0)
(8.6258e-05 -9.47108e-06 0)
(9.03065e-05 -9.44209e-06 0)
(9.43397e-05 -9.39677e-06 0)
(9.83506e-05 -9.33652e-06 0)
(0.000102333 -9.26254e-06 0)
(0.000106282 -9.17554e-06 0)
(0.00011019 -9.07516e-06 0)
(0.000114053 -8.96212e-06 0)
(0.000117866 -8.83796e-06 0)
(0.000121623 -8.70319e-06 0)
(0.000125322 -8.558e-06 0)
(0.000128956 -8.40281e-06 0)
(0.000132522 -8.23857e-06 0)
(0.000136016 -8.06553e-06 0)
(0.000139435 -7.88447e-06 0)
(0.000142776 -7.69636e-06 0)
(0.000146034 -7.50135e-06 0)
(0.000149207 -7.29929e-06 0)
(0.000152293 -7.09045e-06 0)
(0.000155288 -6.87574e-06 0)
(0.000158191 -6.65612e-06 0)
(0.000160998 -6.43194e-06 0)
(0.000163708 -6.20287e-06 0)
(0.000166319 -5.96863e-06 0)
(0.000168828 -5.72967e-06 0)
(0.000171235 -5.48728e-06 0)
(0.000173537 -5.24224e-06 0)
(0.000175733 -4.99408e-06 0)
(0.000177821 -4.74206e-06 0)
(0.0001798 -4.48643e-06 0)
(0.000181669 -4.22799e-06 0)
(0.000183427 -3.96747e-06 0)
(0.000185072 -3.70537e-06 0)
(0.000186605 -3.44152e-06 0)
(0.000188023 -3.17543e-06 0)
(0.000189326 -2.90694e-06 0)
(0.000190513 -2.63658e-06 0)
(0.000191583 -2.36502e-06 0)
(0.000192537 -2.09268e-06 0)
(0.000193374 -1.81953e-06 0)
(0.000194092 -1.54532e-06 0)
(0.000194692 -1.26988e-06 0)
(0.000195173 -9.93171e-07 0)
(0.000195535 -7.15614e-07 0)
(0.000195778 -4.37963e-07 0)
(0.000195902 -1.60695e-07 0)
(0.000195906 1.16359e-07 0)
(0.000195791 3.93749e-07 0)
(0.000195556 6.71816e-07 0)
(0.000195201 9.50301e-07 0)
(0.000194727 1.22851e-06 0)
(0.000194134 1.50573e-06 0)
(0.000193422 1.78164e-06 0)
(0.000192592 2.05645e-06 0)
(0.000191643 2.33058e-06 0)
(0.000190577 2.60428e-06 0)
(0.000189393 2.87724e-06 0)
(0.000188092 3.14875e-06 0)
(0.000186676 3.41814e-06 0)
(0.000185144 3.68516e-06 0)
(0.000183498 3.94975e-06 0)
(0.000181739 4.21203e-06 0)
(0.000179868 4.47214e-06 0)
(0.000177885 4.73e-06 0)
(0.000175792 4.98525e-06 0)
(0.00017359 5.23733e-06 0)
(0.000171282 5.4856e-06 0)
(0.000168869 5.72957e-06 0)
(0.000166352 5.96914e-06 0)
(0.000163733 6.20437e-06 0)
(0.000161014 6.43529e-06 0)
(0.000158197 6.66176e-06 0)
(0.000155285 6.88327e-06 0)
(0.000152279 7.09904e-06 0)
(0.000149183 7.30832e-06 0)
(0.000145999 7.51052e-06 0)
(0.000142731 7.7054e-06 0)
(0.00013938 7.89291e-06 0)
(0.000135952 8.07292e-06 0)
(0.000132448 8.24506e-06 0)
(0.000128873 8.40871e-06 0)
(0.00012523 8.56307e-06 0)
(0.000121524 8.70731e-06 0)
(0.000117759 8.84074e-06 0)
(0.00011394 8.96285e-06 0)
(0.000110072 9.07329e-06 0)
(0.00010616 9.17175e-06 0)
(0.000102209 9.25773e-06 0)
(9.8224e-05 9.33063e-06 0)
(9.42118e-05 9.38968e-06 0)
(9.01783e-05 9.43407e-06 0)
(8.61303e-05 9.46295e-06 0)
(8.20744e-05 9.47546e-06 0)
(7.80177e-05 9.47078e-06 0)
(7.39675e-05 9.44818e-06 0)
(6.99313e-05 9.40708e-06 0)
(6.59172e-05 9.34693e-06 0)
(6.19334e-05 9.26709e-06 0)
(5.79886e-05 9.16675e-06 0)
(5.40916e-05 9.04489e-06 0)
(5.02518e-05 8.90047e-06 0)
(4.64786e-05 8.7325e-06 0)
(4.2782e-05 8.54014e-06 0)
(3.91721e-05 8.32263e-06 0)
(3.56592e-05 8.07936e-06 0)
(3.22539e-05 7.80979e-06 0)
(2.8967e-05 7.51345e-06 0)
(2.58092e-05 7.18997e-06 0)
(2.27914e-05 6.83905e-06 0)
(1.99245e-05 6.46052e-06 0)
(1.72193e-05 6.05443e-06 0)
(1.46863e-05 5.62111e-06 0)
(1.23359e-05 5.1613e-06 0)
(1.01774e-05 4.67635e-06 0)
(8.2196e-06 4.1684e-06 0)
(6.46968e-06 3.64072e-06 0)
(4.9334e-06 3.09793e-06 0)
(3.61439e-06 2.5464e-06 0)
(2.51353e-06 1.99481e-06 0)
(1.62815e-06 1.45486e-06 0)
(9.51154e-07 9.42268e-07 0)
(4.69949e-07 4.78097e-07 0)
(1.6541e-07 9.0346e-08 0)
(1.05155e-08 -1.84626e-07 0)
(-3.32207e-08 -3.01189e-07 0)
(-1.63337e-08 -2.01618e-07 0)
(1.36371e-08 1.50943e-07 0)
(9.13363e-08 2.5098e-07 0)
(3.18236e-07 -1.00274e-07 0)
(6.72711e-07 -6.03735e-07 0)
(1.21219e-06 -1.18427e-06 0)
(1.95319e-06 -1.82547e-06 0)
(2.91727e-06 -2.50802e-06 0)
(4.11513e-06 -3.21885e-06 0)
(5.54433e-06 -3.94632e-06 0)
(7.21676e-06 -4.67883e-06 0)
(9.12484e-06 -5.40936e-06 0)
(1.12663e-05 -6.13037e-06 0)
(1.364e-05 -6.83353e-06 0)
(1.62367e-05 -7.5157e-06 0)
(1.90486e-05 -8.17187e-06 0)
(2.2069e-05 -8.79748e-06 0)
(2.52874e-05 -9.39097e-06 0)
(2.86925e-05 -9.95016e-06 0)
(3.22751e-05 -1.0471e-05 0)
(3.60217e-05 -1.09555e-05 0)
(3.99216e-05 -1.14008e-05 0)
(4.39628e-05 -1.18091e-05 0)
(4.81315e-05 -1.21768e-05 0)
(5.2416e-05 -1.2508e-05 0)
(5.68046e-05 -1.28013e-05 0)
(6.12849e-05 -1.30572e-05 0)
(6.58443e-05 -1.32783e-05 0)
(7.04728e-05 -1.34648e-05 0)
(7.51591e-05 -1.36179e-05 0)
(7.98909e-05 -1.37393e-05 0)
(8.46588e-05 -1.383e-05 0)
(8.94521e-05 -1.38909e-05 0)
(9.42621e-05 -1.3924e-05 0)
(9.9079e-05 -1.39311e-05 0)
(0.000103894 -1.39132e-05 0)
(0.000108699 -1.38707e-05 0)
(0.000113485 -1.38049e-05 0)
(0.000118245 -1.37173e-05 0)
(0.000122971 -1.36094e-05 0)
(0.000127657 -1.34815e-05 0)
(0.000132296 -1.33342e-05 0)
(0.000136881 -1.31691e-05 0)
(0.000141407 -1.29874e-05 0)
(0.000145868 -1.27897e-05 0)
(0.000150259 -1.25769e-05 0)
(0.000154574 -1.23498e-05 0)
(0.000158808 -1.2109e-05 0)
(0.000162957 -1.18553e-05 0)
(0.000167018 -1.159e-05 0)
(0.000170985 -1.13141e-05 0)
(0.000174855 -1.10276e-05 0)
(0.000178625 -1.07308e-05 0)
(0.00018229 -1.04244e-05 0)
(0.000185849 -1.01096e-05 0)
(0.000189297 -9.78726e-06 0)
(0.000192633 -9.45776e-06 0)
(0.000195853 -9.12065e-06 0)
(0.000198956 -8.77609e-06 0)
(0.000201938 -8.42529e-06 0)
(0.000204797 -8.06948e-06 0)
(0.000207533 -7.70894e-06 0)
(0.000210142 -7.34329e-06 0)
(0.000212624 -6.97229e-06 0)
(0.000214976 -6.59645e-06 0)
(0.000217196 -6.21663e-06 0)
(0.000219285 -5.83365e-06 0)
(0.00022124 -5.44792e-06 0)
(0.000223061 -5.0592e-06 0)
(0.000224745 -4.6671e-06 0)
(0.000226292 -4.2718e-06 0)
(0.000227701 -3.87402e-06 0)
(0.000228972 -3.47447e-06 0)
(0.000230104 -3.07356e-06 0)
(0.000231097 -2.67131e-06 0)
(0.000231948 -2.26741e-06 0)
(0.000232659 -1.86163e-06 0)
(0.000233228 -1.45419e-06 0)
(0.000233655 -1.04582e-06 0)
(0.000233941 -6.37469e-07 0)
(0.000234085 -2.29433e-07 0)
(0.000234087 1.78697e-07 0)
(0.000233946 5.87478e-07 0)
(0.000233663 9.97001e-07 0)
(0.000233237 1.40671e-06 0)
(0.00023267 1.81572e-06 0)
(0.000231961 2.22329e-06 0)
(0.000231111 2.6292e-06 0)
(0.000230119 3.03388e-06 0)
(0.000228988 3.43772e-06 0)
(0.000227716 3.84066e-06 0)
(0.000226304 4.24205e-06 0)
(0.000224754 4.64105e-06 0)
(0.000223065 5.037e-06 0)
(0.000221241 5.42966e-06 0)
(0.00021928 5.81906e-06 0)
(0.000217185 6.20523e-06 0)
(0.000214956 6.58814e-06 0)
(0.000212594 6.96745e-06 0)
(0.000210102 7.34251e-06 0)
(0.000207482 7.71258e-06 0)
(0.000204734 8.07703e-06 0)
(0.000201862 8.4354e-06 0)
(0.000198866 8.78759e-06 0)
(0.000195749 9.13353e-06 0)
(0.000192514 9.47297e-06 0)
(0.000189163 9.80551e-06 0)
(0.000185698 1.01304e-05 0)
(0.000182123 1.04467e-05 0)
(0.000178441 1.07535e-05 0)
(0.000174654 1.10501e-05 0)
(0.000170767 1.13362e-05 0)
(0.000166783 1.16115e-05 0)
(0.000162707 1.18757e-05 0)
(0.000158541 1.2128e-05 0)
(0.000154291 1.23676e-05 0)
(0.000149961 1.25933e-05 0)
(0.000145557 1.28043e-05 0)
(0.000141083 1.29995e-05 0)
(0.000136545 1.31781e-05 0)
(0.000131949 1.33397e-05 0)
(0.0001273 1.34836e-05 0)
(0.000122606 1.3609e-05 0)
(0.000117873 1.3715e-05 0)
(0.000113107 1.38005e-05 0)
(0.000108317 1.38644e-05 0)
(0.00010351 1.39055e-05 0)
(9.86934e-05 1.39226e-05 0)
(9.38764e-05 1.39146e-05 0)
(8.90674e-05 1.38805e-05 0)
(8.42752e-05 1.38195e-05 0)
(7.95093e-05 1.37306e-05 0)
(7.47795e-05 1.36128e-05 0)
(7.00957e-05 1.34649e-05 0)
(6.54686e-05 1.32856e-05 0)
(6.09088e-05 1.30734e-05 0)
(5.64276e-05 1.28272e-05 0)
(5.20363e-05 1.25457e-05 0)
(4.77467e-05 1.2228e-05 0)
(4.35707e-05 1.18733e-05 0)
(3.95205e-05 1.14808e-05 0)
(3.56084e-05 1.10499e-05 0)
(3.18467e-05 1.05802e-05 0)
(2.82478e-05 1.00713e-05 0)
(2.48241e-05 9.52318e-06 0)
(2.15876e-05 8.93616e-06 0)
(1.85504e-05 8.31093e-06 0)
(1.57236e-05 7.64881e-06 0)
(1.31177e-05 6.95197e-06 0)
(1.0742e-05 6.22378e-06 0)
(8.60459e-06 5.46903e-06 0)
(6.71142e-06 4.69437e-06 0)
(5.06639e-06 3.90874e-06 0)
(3.67056e-06 3.124e-06 0)
(2.52135e-06 2.3559e-06 0)
(1.61171e-06 1.62511e-06 0)
(9.29415e-07 9.58633e-07 0)
(4.56111e-07 3.91515e-07 0)
(1.66104e-07 -3.15708e-08 0)
(2.54051e-08 -2.55233e-07 0)
(-5.98326e-09 -2.09743e-07 0)
(2.43167e-08 9.55963e-08 0)
(1.55015e-07 4.82082e-08 0)
(4.76263e-07 -4.48557e-07 0)
(9.83094e-07 -1.1322e-06 0)
(1.7009e-06 -1.92586e-06 0)
(2.6648e-06 -2.79774e-06 0)
(3.88587e-06 -3.72417e-06 0)
(5.3703e-06 -4.68642e-06 0)
(7.1283e-06 -5.66631e-06 0)
(9.15231e-06 -6.65222e-06 0)
(1.1443e-05 -7.63349e-06 0)
(1.39971e-05 -8.59953e-06 0)
(1.68059e-05 -9.54357e-06 0)
(1.98639e-05 -1.04588e-05 0)
(2.31623e-05 -1.13384e-05 0)
(2.66895e-05 -1.21786e-05 0)
(3.04362e-05 -1.29767e-05 0)
(3.4392e-05 -1.37274e-05 0)
(3.85424e-05 -1.44303e-05 0)
(4.28764e-05 -1.50827e-05 0)
(4.73803e-05 -1.56842e-05 0)
(5.20416e-05 -1.62339e-05 0)
(5.68456e-05 -1.67332e-05 0)
(6.17784e-05 -1.71804e-05 0)
(6.68289e-05 -1.75776e-05 0)
(7.19807e-05 -1.79257e-05 0)
(7.72224e-05 -1.82252e-05 0)
(8.25411e-05 -1.8478e-05 0)
(8.79243e-05 -1.86865e-05 0)
(9.33598e-05 -1.88519e-05 0)
(9.88355e-05 -1.89757e-05 0)
(0.000104341 -1.90593e-05 0)
(0.000109864 -1.91051e-05 0)
(0.000115395 -1.91148e-05 0)
(0.000120923 -1.90898e-05 0)
(0.00012644 -1.90316e-05 0)
(0.000131935 -1.89419e-05 0)
(0.0001374 -1.88227e-05 0)
(0.000142828 -1.86749e-05 0)
(0.000148209 -1.84995e-05 0)
(0.000153536 -1.82983e-05 0)
(0.000158801 -1.80729e-05 0)
(0.000163999 -1.78243e-05 0)
(0.000169122 -1.75537e-05 0)
(0.000174165 -1.72624e-05 0)
(0.000179121 -1.69515e-05 0)
(0.000183985 -1.66218e-05 0)
(0.000188753 -1.62748e-05 0)
(0.000193418 -1.59118e-05 0)
(0.000197977 -1.55337e-05 0)
(0.000202424 -1.51407e-05 0)
(0.000206755 -1.47336e-05 0)
(0.000210968 -1.43138e-05 0)
(0.000215058 -1.38825e-05 0)
(0.000219022 -1.34405e-05 0)
(0.000222856 -1.29879e-05 0)
(0.000226558 -1.25248e-05 0)
(0.000230124 -1.20519e-05 0)
(0.000233552 -1.1571e-05 0)
(0.00023684 -1.10829e-05 0)
(0.000239985 -1.05874e-05 0)
(0.000242985 -1.00845e-05 0)
(0.000245838 -9.57462e-06 0)
(0.000248541 -9.05849e-06 0)
(0.000251094 -8.53709e-06 0)
(0.000253495 -8.01114e-06 0)
(0.000255742 -7.48084e-06 0)
(0.000257835 -6.94605e-06 0)
(0.000259771 -6.40672e-06 0)
(0.000261548 -5.86339e-06 0)
(0.000263167 -5.31689e-06 0)
(0.000264628 -4.76786e-06 0)
(0.000265928 -4.21668e-06 0)