/*--------------------------------*- C++ -*----------------------------------*\
  =========                 |
  \\      /  F ield         | OpenFOAM: The Open Source CFD Toolbox
   \\    /   O peration     | Website:  https://openfoam.org
    \\  /    A nd           | Version:  7
     \\/     M anipulation  |
\*---------------------------------------------------------------------------*/
FoamFile
{
    version     2.0;
    format      ascii;
    class       volVectorField;
    location    "0.3375";
    object      U;
}
// * * * * * * * * * * * * * * * * * * * * * * * * * * * * * * * * * * * * * //

dimensions      [0 1 -1 0 0 0 0];

internalField   nonuniform List<vector> 
51200
(
(-4.64616e-08 -2.74319e-08 0)
(-4.26033e-09 -4.35525e-08 0)
(1.18356e-08 -1.79112e-08 0)
(8.41144e-08 -2.16784e-08 0)
(1.52287e-07 -2.6569e-08 0)
(2.43806e-07 -3.19701e-08 0)
(3.52181e-07 -3.65438e-08 0)
(4.73136e-07 -4.00625e-08 0)
(6.03055e-07 -4.25006e-08 0)
(7.38904e-07 -4.40883e-08 0)
(8.77691e-07 -4.47533e-08 0)
(1.01715e-06 -4.4556e-08 0)
(1.15516e-06 -4.36413e-08 0)
(1.28981e-06 -4.24924e-08 0)
(1.41967e-06 -4.08425e-08 0)
(1.54332e-06 -3.89128e-08 0)
(1.65956e-06 -3.65898e-08 0)
(1.76777e-06 -3.37818e-08 0)
(1.86692e-06 -3.09377e-08 0)
(1.95639e-06 -2.79192e-08 0)
(2.03585e-06 -2.47061e-08 0)
(2.10471e-06 -2.14333e-08 0)
(2.16282e-06 -1.80232e-08 0)
(2.21009e-06 -1.45968e-08 0)
(2.24621e-06 -1.12842e-08 0)
(2.2712e-06 -8.0688e-09 0)
(2.28513e-06 -4.98357e-09 0)
(2.28811e-06 -1.99224e-09 0)
(2.28034e-06 8.84607e-10 0)
(2.262e-06 3.64935e-09 0)
(2.23345e-06 6.56757e-09 0)
(2.19493e-06 9.67768e-09 0)
(2.14661e-06 1.27215e-08 0)
(2.08907e-06 1.55921e-08 0)
(2.02277e-06 1.81946e-08 0)
(1.94794e-06 2.04149e-08 0)
(1.86513e-06 2.24085e-08 0)
(1.77493e-06 2.4396e-08 0)
(1.67768e-06 2.64145e-08 0)
(1.5739e-06 2.8415e-08 0)
(1.46425e-06 3.02338e-08 0)
(1.34922e-06 3.17051e-08 0)
(1.22929e-06 3.29094e-08 0)
(1.10505e-06 3.40205e-08 0)
(9.76969e-07 3.50821e-08 0)
(8.45554e-07 3.60539e-08 0)
(7.11493e-07 3.68885e-08 0)
(5.75313e-07 3.75087e-08 0)
(4.37428e-07 3.79182e-08 0)
(2.98414e-07 3.8178e-08 0)
(1.58857e-07 3.82733e-08 0)
(1.92142e-08 3.81967e-08 0)
(-1.19991e-07 3.80358e-08 0)
(-2.58178e-07 3.78187e-08 0)
(-3.9491e-07 3.74663e-08 0)
(-5.29758e-07 3.69311e-08 0)
(-6.62185e-07 3.62142e-08 0)
(-7.91714e-07 3.53141e-08 0)
(-9.17944e-07 3.42609e-08 0)
(-1.04042e-06 3.31219e-08 0)
(-1.15873e-06 3.19351e-08 0)
(-1.2726e-06 3.06598e-08 0)
(-1.38168e-06 2.92525e-08 0)
(-1.4856e-06 2.77544e-08 0)
(-1.584e-06 2.61872e-08 0)
(-1.67658e-06 2.4509e-08 0)
(-1.76308e-06 2.27562e-08 0)
(-1.84326e-06 2.09965e-08 0)
(-1.91686e-06 1.91906e-08 0)
(-1.98366e-06 1.73083e-08 0)
(-2.04348e-06 1.53972e-08 0)
(-2.0961e-06 1.34699e-08 0)
(-2.14145e-06 1.14964e-08 0)
(-2.17949e-06 9.45432e-09 0)
(-2.21005e-06 7.33977e-09 0)
(-2.23294e-06 5.16575e-09 0)
(-2.24808e-06 2.94176e-09 0)
(-2.25549e-06 7.06123e-10 0)
(-2.25516e-06 -1.47243e-09 0)
(-2.24704e-06 -3.58039e-09 0)
(-2.23108e-06 -5.67361e-09 0)
(-2.2073e-06 -7.78837e-09 0)
(-2.17576e-06 -9.8932e-09 0)
(-2.13656e-06 -1.19669e-08 0)
(-2.08983e-06 -1.40334e-08 0)
(-2.03579e-06 -1.60981e-08 0)
(-1.97454e-06 -1.81339e-08 0)
(-1.90618e-06 -2.01075e-08 0)
(-1.83095e-06 -2.2011e-08 0)
(-1.74914e-06 -2.38461e-08 0)
(-1.66097e-06 -2.55816e-08 0)
(-1.56667e-06 -2.71834e-08 0)
(-1.4665e-06 -2.86439e-08 0)
(-1.36084e-06 -2.99911e-08 0)
(-1.24996e-06 -3.12914e-08 0)
(-1.13412e-06 -3.25809e-08 0)
(-1.01368e-06 -3.38398e-08 0)
(-8.89066e-07 -3.50299e-08 0)
(-7.60765e-07 -3.60876e-08 0)
(-6.29127e-07 -3.69592e-08 0)
(-4.94438e-07 -3.76356e-08 0)
(-3.57092e-07 -3.81324e-08 0)
(-2.17526e-07 -3.85367e-08 0)
(-7.61544e-08 -3.89537e-08 0)
(6.65548e-08 -3.93551e-08 0)
(2.10099e-07 -3.96186e-08 0)
(3.53966e-07 -3.9653e-08 0)
(4.97663e-07 -3.9455e-08 0)
(6.40742e-07 -3.9094e-08 0)
(7.82727e-07 -3.86132e-08 0)
(9.23081e-07 -3.79939e-08 0)
(1.06126e-06 -3.72379e-08 0)
(1.19672e-06 -3.63722e-08 0)
(1.32897e-06 -3.53898e-08 0)
(1.45752e-06 -3.42538e-08 0)
(1.58183e-06 -3.29178e-08 0)
(1.70138e-06 -3.1387e-08 0)
(1.81572e-06 -2.97342e-08 0)
(1.9243e-06 -2.7987e-08 0)
(2.02663e-06 -2.61279e-08 0)
(2.12225e-06 -2.4152e-08 0)
(2.21069e-06 -2.20164e-08 0)
(2.29151e-06 -1.96998e-08 0)
(2.36436e-06 -1.72678e-08 0)
(2.4288e-06 -1.47546e-08 0)
(2.48434e-06 -1.21211e-08 0)
(2.5306e-06 -9.35665e-09 0)
(2.56721e-06 -6.4919e-09 0)
(2.59383e-06 -3.53709e-09 0)
(2.6102e-06 -5.01722e-10 0)
(2.61608e-06 2.59482e-09 0)
(2.61125e-06 5.76717e-09 0)
(2.59559e-06 9.02054e-09 0)
(2.56898e-06 1.22925e-08 0)
(2.53131e-06 1.55381e-08 0)
(2.48257e-06 1.87545e-08 0)
(2.42291e-06 2.19384e-08 0)
(2.35245e-06 2.50938e-08 0)
(2.27141e-06 2.82029e-08 0)
(2.18015e-06 3.11952e-08 0)
(2.07902e-06 3.40323e-08 0)
(1.96848e-06 3.67448e-08 0)
(1.84919e-06 3.93249e-08 0)
(1.72191e-06 4.16789e-08 0)
(1.58746e-06 4.37134e-08 0)
(1.44689e-06 4.53844e-08 0)
(1.30146e-06 4.66611e-08 0)
(1.15257e-06 4.74949e-08 0)
(1.00186e-06 4.78106e-08 0)
(8.513e-07 4.74945e-08 0)
(7.031e-07 4.63986e-08 0)
(5.59749e-07 4.43856e-08 0)
(4.24158e-07 4.13424e-08 0)
(2.9968e-07 3.71211e-08 0)
(1.89991e-07 3.15175e-08 0)
(9.90285e-08 2.41984e-08 0)
(3.10584e-08 1.46402e-08 0)
(-9.32806e-09 2.63706e-09 0)
(-1.97989e-08 -8.97566e-09 0)
(-8.26618e-09 -1.13312e-08 0)
(-5.35217e-08 3.28527e-08 0)
(-4.35586e-08 -6.78686e-08 0)
(6.24106e-08 -8.34579e-08 0)
(2.21756e-07 -1.27249e-07 0)
(4.30575e-07 -1.66898e-07 0)
(6.87592e-07 -2.00355e-07 0)
(9.83454e-07 -2.27096e-07 0)
(1.30923e-06 -2.4706e-07 0)
(1.65708e-06 -2.60875e-07 0)
(2.01901e-06 -2.69357e-07 0)
(2.38823e-06 -2.72828e-07 0)
(2.75846e-06 -2.71805e-07 0)
(3.12427e-06 -2.66997e-07 0)
(3.48113e-06 -2.58867e-07 0)
(3.82462e-06 -2.48024e-07 0)
(4.15094e-06 -2.3493e-07 0)
(4.45717e-06 -2.19588e-07 0)
(4.74042e-06 -2.02599e-07 0)
(4.99884e-06 -1.84294e-07 0)
(5.23074e-06 -1.64814e-07 0)
(5.43409e-06 -1.4454e-07 0)
(5.60803e-06 -1.2353e-07 0)
(5.75184e-06 -1.01888e-07 0)
(5.86476e-06 -8.0016e-08 0)
(5.94673e-06 -5.80335e-08 0)
(5.99757e-06 -3.61266e-08 0)
(6.01715e-06 -1.43641e-08 0)
(6.00592e-06 7.16472e-09 0)
(5.96422e-06 2.81767e-08 0)
(5.89265e-06 4.86555e-08 0)
(5.79212e-06 6.86536e-08 0)
(5.66329e-06 8.80417e-08 0)
(5.50707e-06 1.06867e-07 0)
(5.32471e-06 1.25067e-07 0)
(5.11724e-06 1.42291e-07 0)
(4.88589e-06 1.58443e-07 0)
(4.6321e-06 1.7362e-07 0)
(4.3571e-06 1.87794e-07 0)
(4.06223e-06 2.01045e-07 0)
(3.74905e-06 2.13487e-07 0)
(3.41906e-06 2.2491e-07 0)
(3.07377e-06 2.35107e-07 0)
(2.71481e-06 2.4415e-07 0)
(2.34368e-06 2.52071e-07 0)
(1.96178e-06 2.58939e-07 0)
(1.57075e-06 2.64897e-07 0)
(1.17226e-06 2.69871e-07 0)
(7.67755e-07 2.73676e-07 0)
(3.58807e-07 2.76371e-07 0)
(-5.29594e-08 2.78037e-07 0)
(-4.66119e-07 2.78606e-07 0)
(-8.79219e-07 2.78096e-07 0)
(-1.29069e-06 2.76637e-07 0)
(-1.69909e-06 2.74235e-07 0)
(-2.10307e-06 2.70859e-07 0)
(-2.50116e-06 2.66559e-07 0)
(-2.89195e-06 2.6134e-07 0)
(-3.27424e-06 2.5517e-07 0)
(-3.64684e-06 2.48121e-07 0)
(-4.0084e-06 2.40298e-07 0)
(-4.35776e-06 2.31737e-07 0)
(-4.694e-06 2.22442e-07 0)
(-5.01601e-06 2.12439e-07 0)
(-5.32276e-06 2.01801e-07 0)
(-5.61341e-06 1.90553e-07 0)
(-5.88706e-06 1.7866e-07 0)
(-6.14275e-06 1.66199e-07 0)
(-6.37975e-06 1.53307e-07 0)
(-6.59741e-06 1.39984e-07 0)
(-6.79512e-06 1.26253e-07 0)
(-6.97229e-06 1.12239e-07 0)
(-7.12837e-06 9.79459e-08 0)
(-7.26294e-06 8.33151e-08 0)
(-7.37571e-06 6.84195e-08 0)
(-7.46629e-06 5.33569e-08 0)
(-7.53434e-06 3.81222e-08 0)
(-7.57968e-06 2.26649e-08 0)
(-7.60215e-06 7.03348e-09 0)
(-7.60165e-06 -8.62236e-09 0)
(-7.57816e-06 -2.41972e-08 0)
(-7.5318e-06 -3.96863e-08 0)
(-7.46268e-06 -5.50981e-08 0)
(-7.37094e-06 -7.03561e-08 0)
(-7.25679e-06 -8.53945e-08 0)
(-7.12055e-06 -1.00226e-07 0)
(-6.96266e-06 -1.14793e-07 0)
(-6.78356e-06 -1.28999e-07 0)
(-6.58371e-06 -1.42826e-07 0)
(-6.36367e-06 -1.56291e-07 0)
(-6.12412e-06 -1.69353e-07 0)
(-5.86574e-06 -1.81902e-07 0)
(-5.58922e-06 -1.93852e-07 0)
(-5.29535e-06 -2.05193e-07 0)
(-4.9851e-06 -2.15882e-07 0)
(-4.65941e-06 -2.25868e-07 0)
(-4.31917e-06 -2.35166e-07 0)
(-3.96532e-06 -2.43824e-07 0)
(-3.59886e-06 -2.51886e-07 0)
(-3.22092e-06 -2.59287e-07 0)
(-2.83269e-06 -2.65877e-07 0)
(-2.43535e-06 -2.71571e-07 0)
(-2.03016e-06 -2.7633e-07 0)
(-1.61837e-06 -2.80162e-07 0)
(-1.20113e-06 -2.83172e-07 0)
(-7.79696e-07 -2.85403e-07 0)
(-3.55504e-07 -2.86757e-07 0)
(7.00073e-08 -2.8712e-07 0)
(4.95419e-07 -2.86411e-07 0)
(9.19337e-07 -2.84623e-07 0)
(1.34031e-06 -2.81816e-07 0)
(1.75679e-06 -2.78015e-07 0)
(2.1673e-06 -2.7321e-07 0)
(2.57042e-06 -2.67415e-07 0)
(2.96468e-06 -2.60618e-07 0)
(3.34858e-06 -2.52797e-07 0)
(3.7206e-06 -2.43936e-07 0)
(4.07922e-06 -2.34015e-07 0)
(4.42307e-06 -2.23079e-07 0)
(4.75075e-06 -2.112e-07 0)
(5.06079e-06 -1.98395e-07 0)
(5.35189e-06 -1.84689e-07 0)
(5.6227e-06 -1.70079e-07 0)
(5.87188e-06 -1.5453e-07 0)
(6.09821e-06 -1.38101e-07 0)
(6.30048e-06 -1.20905e-07 0)
(6.47752e-06 -1.02968e-07 0)
(6.62829e-06 -8.42722e-08 0)
(6.75184e-06 -6.48801e-08 0)
(6.84725e-06 -4.4881e-08 0)
(6.91366e-06 -2.43444e-08 0)
(6.95042e-06 -3.36771e-09 0)
(6.95696e-06 1.79706e-08 0)
(6.93288e-06 3.96212e-08 0)
(6.87793e-06 6.14416e-08 0)
(6.792e-06 8.32504e-08 0)
(6.67509e-06 1.0493e-07 0)
(6.52747e-06 1.2637e-07 0)
(6.34956e-06 1.47441e-07 0)
(6.14203e-06 1.68007e-07 0)
(5.90582e-06 1.87881e-07 0)
(5.64217e-06 2.06844e-07 0)
(5.35251e-06 2.24712e-07 0)
(5.0386e-06 2.4129e-07 0)
(4.70262e-06 2.56271e-07 0)
(4.34712e-06 2.69264e-07 0)
(3.97505e-06 2.79914e-07 0)
(3.58988e-06 2.87903e-07 0)
(3.19559e-06 2.92862e-07 0)
(2.79672e-06 2.94356e-07 0)
(2.39841e-06 2.91884e-07 0)
(2.00655e-06 2.84844e-07 0)
(1.62776e-06 2.72507e-07 0)
(1.26937e-06 2.5413e-07 0)
(9.39389e-07 2.29034e-07 0)
(6.46408e-07 1.9662e-07 0)
(3.99291e-07 1.56598e-07 0)
(2.06342e-07 1.09313e-07 0)
(7.53081e-08 5.63189e-08 0)
(7.03542e-09 5.621e-09 0)
(-4.01512e-09 -2.08154e-08 0)
(-6.49524e-09 1.85592e-08 0)
(4.24914e-08 -1.13293e-07 0)
(1.85489e-07 -2.36523e-07 0)
(4.27715e-07 -3.58543e-07 0)
(7.49519e-07 -4.66012e-07 0)
(1.14103e-06 -5.5423e-07 0)
(1.58931e-06 -6.24119e-07 0)
(2.08161e-06 -6.76194e-07 0)
(2.60568e-06 -7.12503e-07 0)
(3.15077e-06 -7.34214e-07 0)
(3.7064e-06 -7.42898e-07 0)
(4.26299e-06 -7.39825e-07 0)
(4.81249e-06 -7.26151e-07 0)
(5.34738e-06 -7.03345e-07 0)
(5.8612e-06 -6.72878e-07 0)
(6.34861e-06 -6.35572e-07 0)
(6.80421e-06 -5.92661e-07 0)
(7.22391e-06 -5.4478e-07 0)
(7.60451e-06 -4.92731e-07 0)
(7.94283e-06 -4.37753e-07 0)
(8.23667e-06 -3.80256e-07 0)
(8.48425e-06 -3.20675e-07 0)
(8.68389e-06 -2.59772e-07 0)
(8.83486e-06 -1.978e-07 0)
(8.93666e-06 -1.35349e-07 0)
(8.98894e-06 -7.29924e-08 0)
(8.99189e-06 -1.08731e-08 0)
(8.94581e-06 5.05453e-08 0)
(8.85135e-06 1.10831e-07 0)
(8.70961e-06 1.69854e-07 0)
(8.5217e-06 2.27188e-07 0)
(8.2889e-06 2.8259e-07 0)
(8.01276e-06 3.36106e-07 0)
(7.69487e-06 3.87459e-07 0)
(7.33698e-06 4.36423e-07 0)
(6.94117e-06 4.82959e-07 0)
(6.50954e-06 5.26763e-07 0)
(6.04429e-06 5.67628e-07 0)
(5.54775e-06 6.05662e-07 0)
(5.02211e-06 6.4081e-07 0)
(4.46963e-06 6.72936e-07 0)
(3.89291e-06 7.02064e-07 0)
(3.29444e-06 7.28103e-07 0)
(2.6766e-06 7.50906e-07 0)
(2.04202e-06 7.70582e-07 0)
(1.39326e-06 7.87267e-07 0)
(7.32699e-07 8.00832e-07 0)
(6.29032e-08 8.11251e-07 0)
(-6.13553e-07 8.1867e-07 0)
(-1.2943e-06 8.23038e-07 0)
(-1.97691e-06 8.24286e-07 0)
(-2.65882e-06 8.22558e-07 0)
(-3.33767e-06 8.17941e-07 0)
(-4.01121e-06 8.10402e-07 0)
(-4.67712e-06 8.00064e-07 0)
(-5.33309e-06 7.8709e-07 0)
(-5.97699e-06 7.71443e-07 0)
(-6.60677e-06 7.53143e-07 0)
(-7.22039e-06 7.32438e-07 0)
(-7.81589e-06 7.09463e-07 0)
(-8.39143e-06 6.84211e-07 0)
(-8.94528e-06 6.56825e-07 0)
(-9.47563e-06 6.27449e-07 0)
(-9.98086e-06 5.96114e-07 0)
(-1.04596e-05 5.62918e-07 0)
(-1.09103e-05 5.28024e-07 0)
(-1.13316e-05 4.91563e-07 0)
(-1.17223e-05 4.53639e-07 0)
(-1.20812e-05 4.14339e-07 0)
(-1.24072e-05 3.73823e-07 0)
(-1.26994e-05 3.32321e-07 0)
(-1.2957e-05 2.89928e-07 0)
(-1.31793e-05 2.46662e-07 0)
(-1.33656e-05 2.02665e-07 0)
(-1.35154e-05 1.58112e-07 0)
(-1.36282e-05 1.13103e-07 0)
(-1.37037e-05 6.77197e-08 0)
(-1.37418e-05 2.2071e-08 0)
(-1.37421e-05 -2.37151e-08 0)
(-1.37046e-05 -6.95411e-08 0)
(-1.36296e-05 -1.1527e-07 0)
(-1.35172e-05 -1.60698e-07 0)
(-1.33677e-05 -2.05638e-07 0)
(-1.31816e-05 -2.49953e-07 0)
(-1.29594e-05 -2.93578e-07 0)
(-1.27015e-05 -3.36403e-07 0)
(-1.24087e-05 -3.7824e-07 0)
(-1.20818e-05 -4.1897e-07 0)
(-1.17219e-05 -4.58544e-07 0)
(-1.13299e-05 -4.96853e-07 0)
(-1.09068e-05 -5.33727e-07 0)
(-1.04539e-05 -5.69028e-07 0)
(-9.97239e-06 -6.02707e-07 0)
(-9.46369e-06 -6.34673e-07 0)
(-8.9293e-06 -6.64736e-07 0)
(-8.37079e-06 -6.92743e-07 0)
(-7.78985e-06 -7.18629e-07 0)
(-7.18809e-06 -7.42396e-07 0)
(-6.56719e-06 -7.64056e-07 0)
(-5.929e-06 -7.83525e-07 0)
(-5.27545e-06 -8.00689e-07 0)
(-4.60859e-06 -8.1541e-07 0)
(-3.93053e-06 -8.27489e-07 0)
(-3.24332e-06 -8.36859e-07 0)
(-2.54904e-06 -8.43577e-07 0)
(-1.84989e-06 -8.47617e-07 0)
(-1.14813e-06 -8.48891e-07 0)
(-4.46021e-07 -8.47311e-07 0)
(2.5412e-07 -8.42798e-07 0)
(9.49923e-07 -8.35349e-07 0)
(1.63896e-06 -8.2497e-07 0)
(2.31879e-06 -8.11592e-07 0)
(2.98709e-06 -7.95212e-07 0)
(3.64154e-06 -7.75902e-07 0)
(4.27974e-06 -7.53675e-07 0)
(4.89927e-06 -7.28522e-07 0)
(5.49769e-06 -7.00425e-07 0)
(6.07267e-06 -6.69374e-07 0)
(6.62191e-06 -6.35463e-07 0)
(7.14317e-06 -5.98805e-07 0)
(7.63428e-06 -5.59469e-07 0)
(8.09309e-06 -5.17526e-07 0)
(8.51747e-06 -4.73054e-07 0)
(8.90538e-06 -4.26133e-07 0)
(9.25488e-06 -3.76881e-07 0)
(9.56419e-06 -3.25438e-07 0)
(9.83168e-06 -2.71908e-07 0)
(1.00558e-05 -2.1644e-07 0)
(1.02351e-05 -1.59289e-07 0)
(1.03684e-05 -1.00675e-07 0)
(1.04546e-05 -4.07935e-08 0)
(1.04928e-05 2.00861e-08 0)
(1.04824e-05 8.16864e-08 0)
(1.04229e-05 1.43716e-07 0)
(1.03142e-05 2.0578e-07 0)
(1.01566e-05 2.67477e-07 0)
(9.95028e-06 3.28463e-07 0)
(9.69603e-06 3.88363e-07 0)
(9.39491e-06 4.46713e-07 0)
(9.04848e-06 5.02999e-07 0)
(8.65872e-06 5.56648e-07 0)
(8.22805e-06 6.07021e-07 0)
(7.75936e-06 6.53444e-07 0)
(7.25603e-06 6.9519e-07 0)
(6.72207e-06 7.31405e-07 0)
(6.16223e-06 7.61135e-07 0)
(5.58191e-06 7.83414e-07 0)
(4.98723e-06 7.97187e-07 0)
(4.38519e-06 8.01228e-07 0)
(3.78367e-06 7.94235e-07 0)
(3.1914e-06 7.74849e-07 0)
(2.61802e-06 7.41543e-07 0)
(2.0742e-06 6.92678e-07 0)
(1.57131e-06 6.26795e-07 0)
(1.12108e-06 5.42995e-07 0)
(7.35059e-07 4.41534e-07 0)
(4.23283e-07 3.24734e-07 0)
(1.94947e-07 1.98031e-07 0)
(5.56832e-08 7.48843e-08 0)
(4.84047e-09 -8.10797e-09 0)
(1.06655e-08 3.34393e-09 0)
(1.01039e-07 -2.29703e-07 0)
(3.10616e-07 -4.62351e-07 0)
(6.35789e-07 -6.85541e-07 0)
(1.05865e-06 -8.80454e-07 0)
(1.56579e-06 -1.04156e-06 0)
(2.14194e-06 -1.16885e-06 0)
(2.77153e-06 -1.26468e-06 0)
(3.43977e-06 -1.33078e-06 0)
(4.13284e-06 -1.37003e-06 0)
(4.83778e-06 -1.385e-06 0)
(5.54311e-06 -1.37804e-06 0)
(6.23802e-06 -1.35154e-06 0)
(6.91282e-06 -1.30789e-06 0)
(7.55936e-06 -1.24902e-06 0)
(8.17013e-06 -1.17742e-06 0)
(8.73891e-06 -1.09487e-06 0)
(9.26017e-06 -1.00273e-06 0)
(9.72891e-06 -9.02864e-07 0)
(1.01415e-05 -7.96651e-07 0)
(1.04949e-05 -6.85304e-07 0)
(1.07864e-05 -5.70269e-07 0)
(1.10143e-05 -4.52455e-07 0)
(1.11773e-05 -3.3272e-07 0)
(1.12745e-05 -2.12162e-07 0)
(1.13057e-05 -9.1478e-08 0)
(1.1271e-05 2.85653e-08 0)
(1.11706e-05 1.47211e-07 0)
(1.10056e-05 2.64017e-07 0)
(1.07773e-05 3.78367e-07 0)
(1.0487e-05 4.89593e-07 0)
(1.01368e-05 5.97317e-07 0)
(9.72864e-06 7.0108e-07 0)
(9.26461e-06 8.0044e-07 0)
(8.74725e-06 8.95246e-07 0)
(8.17906e-06 9.85242e-07 0)
(7.56274e-06 1.07008e-06 0)
(6.90146e-06 1.14958e-06 0)
(6.19833e-06 1.22345e-06 0)
(5.45633e-06 1.29143e-06 0)
(4.67871e-06 1.35356e-06 0)
(3.86874e-06 1.40982e-06 0)
(3.02961e-06 1.46002e-06 0)
(2.16479e-06 1.50412e-06 0)
(1.27787e-06 1.54219e-06 0)
(3.72195e-07 1.57412e-06 0)
(-5.48891e-07 1.59988e-06 0)
(-1.48184e-06 1.6196e-06 0)
(-2.4233e-06 1.63328e-06 0)
(-3.37005e-06 1.64091e-06 0)
(-4.31869e-06 1.64266e-06 0)
(-5.26582e-06 1.63864e-06 0)
(-6.20829e-06 1.62884e-06 0)
(-7.14291e-06 1.61337e-06 0)
(-8.06644e-06 1.59245e-06 0)
(-8.97594e-06 1.56623e-06 0)
(-9.86856e-06 1.5348e-06 0)
(-1.07413e-05 1.49832e-06 0)
(-1.15915e-05 1.45706e-06 0)
(-1.24164e-05 1.41119e-06 0)
(-1.32137e-05 1.36085e-06 0)
(-1.39807e-05 1.30634e-06 0)
(-1.47151e-05 1.2479e-06 0)
(-1.54148e-05 1.18559e-06 0)
(-1.60777e-05 1.11962e-06 0)
(-1.67018e-05 1.05035e-06 0)
(-1.72853e-05 9.77981e-07 0)
(-1.78264e-05 9.02702e-07 0)
(-1.83236e-05 8.24793e-07 0)
(-1.87754e-05 7.44507e-07 0)
(-1.91804e-05 6.6208e-07 0)
(-1.95377e-05 5.77752e-07 0)
(-1.98462e-05 4.91765e-07 0)
(-2.01049e-05 4.04375e-07 0)
(-2.0313e-05 3.15787e-07 0)
(-2.04701e-05 2.26209e-07 0)
(-2.05757e-05 1.35948e-07 0)
(-2.06295e-05 4.53074e-08 0)
(-2.06313e-05 -4.54906e-08 0)
(-2.05811e-05 -1.36257e-07 0)
(-2.0479e-05 -2.2675e-07 0)
(-2.03252e-05 -3.16671e-07 0)
(-2.01203e-05 -4.05755e-07 0)
(-1.98647e-05 -4.93727e-07 0)
(-1.95592e-05 -5.80302e-07 0)
(-1.92045e-05 -6.65253e-07 0)
(-1.88015e-05 -7.48355e-07 0)
(-1.83515e-05 -8.29379e-07 0)
(-1.78557e-05 -9.08089e-07 0)
(-1.73155e-05 -9.8421e-07 0)
(-1.67323e-05 -1.05749e-06 0)
(-1.61078e-05 -1.12771e-06 0)
(-1.54437e-05 -1.1947e-06 0)
(-1.47419e-05 -1.25829e-06 0)
(-1.40043e-05 -1.31829e-06 0)
(-1.32331e-05 -1.37448e-06 0)
(-1.24305e-05 -1.42663e-06 0)
(-1.1599e-05 -1.4745e-06 0)
(-1.07407e-05 -1.51796e-06 0)
(-9.85838e-06 -1.55691e-06 0)
(-8.95449e-06 -1.59122e-06 0)
(-8.03173e-06 -1.62078e-06 0)
(-7.09288e-06 -1.64537e-06 0)
(-6.14092e-06 -1.66474e-06 0)
(-5.17879e-06 -1.67881e-06 0)
(-4.20944e-06 -1.68751e-06 0)
(-3.23593e-06 -1.69071e-06 0)
(-2.26133e-06 -1.6883e-06 0)
(-1.28879e-06 -1.68022e-06 0)
(-3.21578e-07 -1.66641e-06 0)
(6.37098e-07 -1.64688e-06 0)
(1.584e-06 -1.62154e-06 0)
(2.51584e-06 -1.59031e-06 0)
(3.42936e-06 -1.55322e-06 0)
(4.32138e-06 -1.51036e-06 0)
(5.18861e-06 -1.46174e-06 0)
(6.02784e-06 -1.40743e-06 0)
(6.8359e-06 -1.34746e-06 0)
(7.60958e-06 -1.28189e-06 0)
(8.34582e-06 -1.21087e-06 0)
(9.0417e-06 -1.13454e-06 0)
(9.69429e-06 -1.05307e-06 0)
(1.03007e-05 -9.66669e-07 0)
(1.08583e-05 -8.75553e-07 0)
(1.13644e-05 -7.79919e-07 0)
(1.18166e-05 -6.80007e-07 0)
(1.22128e-05 -5.76116e-07 0)
(1.25508e-05 -4.68546e-07 0)
(1.28288e-05 -3.57684e-07 0)
(1.30451e-05 -2.43996e-07 0)
(1.31983e-05 -1.27929e-07 0)
(1.32872e-05 -9.98281e-09 0)
(1.33111e-05 1.09258e-07 0)
(1.32694e-05 2.29214e-07 0)
(1.31619e-05 3.49267e-07 0)
(1.29888e-05 4.68682e-07 0)
(1.27507e-05 5.86656e-07 0)
(1.24487e-05 7.02373e-07 0)
(1.20842e-05 8.14979e-07 0)
(1.16593e-05 9.23497e-07 0)
(1.11766e-05 1.02682e-06 0)
(1.06394e-05 1.12376e-06 0)
(1.00515e-05 1.21296e-06 0)
(9.41762e-06 1.29301e-06 0)
(8.74299e-06 1.36239e-06 0)
(8.03377e-06 1.41943e-06 0)
(7.29708e-06 1.4623e-06 0)
(6.54084e-06 1.48902e-06 0)
(5.77396e-06 1.49744e-06 0)
(5.00649e-06 1.48523e-06 0)
(4.24945e-06 1.44999e-06 0)
(3.51475e-06 1.38932e-06 0)
(2.81524e-06 1.30087e-06 0)
(2.16467e-06 1.18249e-06 0)
(1.57724e-06 1.0329e-06 0)
(1.06681e-06 8.5285e-07 0)
(6.44766e-07 6.46985e-07 0)
(3.20818e-07 4.2523e-07 0)
(1.06687e-07 2.05911e-07 0)
(1.42735e-08 3.10362e-08 0)
(2.32172e-08 -6.8477e-08 0)
(1.51811e-07 -4.13303e-07 0)
(4.26034e-07 -7.66517e-07 0)
(8.30571e-07 -1.10184e-06 0)
(1.34374e-06 -1.39531e-06 0)
(1.95039e-06 -1.63859e-06 0)
(2.63351e-06 -1.83186e-06 0)
(3.37585e-06 -1.97696e-06 0)
(4.16042e-06 -2.07717e-06 0)
(4.97117e-06 -2.13574e-06 0)
(5.79366e-06 -2.15638e-06 0)
(6.6141e-06 -2.14283e-06 0)
(7.42018e-06 -2.09894e-06 0)
(8.20085e-06 -2.02795e-06 0)
(8.94577e-06 -1.93326e-06 0)
(9.64635e-06 -1.81798e-06 0)
(1.02952e-05 -1.68495e-06 0)
(1.08855e-05 -1.53707e-06 0)
(1.14114e-05 -1.37665e-06 0)
(1.18684e-05 -1.20581e-06 0)
(1.22524e-05 -1.02681e-06 0)
(1.25607e-05 -8.41449e-07 0)
(1.27908e-05 -6.51479e-07 0)
(1.29411e-05 -4.58619e-07 0)
(1.30107e-05 -2.64094e-07 0)
(1.2999e-05 -6.93672e-08 0)
(1.29062e-05 1.2419e-07 0)
(1.27329e-05 3.15673e-07 0)
(1.24803e-05 5.04056e-07 0)
(1.21496e-05 6.88361e-07 0)
(1.17427e-05 8.67948e-07 0)
(1.1262e-05 1.042e-06 0)
(1.07097e-05 1.20967e-06 0)
(1.00888e-05 1.37039e-06 0)
(9.40232e-06 1.52358e-06 0)
(8.65339e-06 1.6687e-06 0)
(7.84546e-06 1.80553e-06 0)
(6.98217e-06 1.93378e-06 0)
(6.06723e-06 2.05294e-06 0)
(5.10463e-06 2.16274e-06 0)
(4.09841e-06 2.26302e-06 0)
(3.05254e-06 2.3535e-06 0)
(1.97113e-06 2.43413e-06 0)
(8.58486e-07 2.50497e-06 0)
(-2.81135e-07 2.56589e-06 0)
(-1.4435e-06 2.61676e-06 0)
(-2.62425e-06 2.65771e-06 0)
(-3.81911e-06 2.68876e-06 0)
(-5.02393e-06 2.70984e-06 0)
(-6.23447e-06 2.72109e-06 0)
(-7.44653e-06 2.72275e-06 0)
(-8.65602e-06 2.71489e-06 0)
(-9.85895e-06 2.69765e-06 0)
(-1.10513e-05 2.67131e-06 0)
(-1.2229e-05 2.63604e-06 0)
(-1.33884e-05 2.592e-06 0)
(-1.45259e-05 2.53952e-06 0)
(-1.56379e-05 2.4789e-06 0)
(-1.67207e-05 2.41039e-06 0)
(-1.77713e-05 2.33426e-06 0)
(-1.87864e-05 2.2509e-06 0)
(-1.97628e-05 2.16065e-06 0)
(-2.06977e-05 2.06384e-06 0)
(-2.15883e-05 1.96076e-06 0)
(-2.2432e-05 1.85179e-06 0)
(-2.32263e-05 1.73732e-06 0)
(-2.39689e-05 1.6177e-06 0)
(-2.46576e-05 1.4933e-06 0)
(-2.52906e-05 1.36464e-06 0)
(-2.58658e-05 1.23208e-06 0)
(-2.63817e-05 1.09592e-06 0)
(-2.68369e-05 9.56618e-07 0)
(-2.72301e-05 8.14639e-07 0)
(-2.75601e-05 6.70366e-07 0)
(-2.7826e-05 5.2412e-07 0)
(-2.80271e-05 3.76261e-07 0)
(-2.81628e-05 2.27254e-07 0)
(-2.82327e-05 7.75624e-08 0)
(-2.82366e-05 -7.24097e-08 0)
(-2.81745e-05 -2.22248e-07 0)
(-2.80465e-05 -3.71524e-07 0)
(-2.7853e-05 -5.19812e-07 0)
(-2.75945e-05 -6.66736e-07 0)
(-2.72717e-05 -8.11887e-07 0)
(-2.68855e-05 -9.54771e-07 0)
(-2.64367e-05 -1.09498e-06 0)
(-2.59268e-05 -1.23219e-06 0)
(-2.5357e-05 -1.36604e-06 0)
(-2.4729e-05 -1.49611e-06 0)
(-2.40444e-05 -1.62197e-06 0)
(-2.33052e-05 -1.74324e-06 0)
(-2.25133e-05 -1.85959e-06 0)
(-2.1671e-05 -1.9706e-06 0)
(-2.07807e-05 -2.07594e-06 0)
(-1.98447e-05 -2.17534e-06 0)
(-1.88658e-05 -2.26853e-06 0)
(-1.78467e-05 -2.35521e-06 0)
(-1.67903e-05 -2.43502e-06 0)
(-1.56997e-05 -2.50762e-06 0)
(-1.4578e-05 -2.57275e-06 0)
(-1.34286e-05 -2.63014e-06 0)
(-1.22549e-05 -2.67958e-06 0)
(-1.10601e-05 -2.7209e-06 0)
(-9.84805e-06 -2.75382e-06 0)
(-8.62241e-06 -2.77813e-06 0)
(-7.38694e-06 -2.79363e-06 0)
(-6.14542e-06 -2.80013e-06 0)
(-4.90177e-06 -2.79746e-06 0)
(-3.65994e-06 -2.78553e-06 0)
(-2.42397e-06 -2.76424e-06 0)
(-1.19792e-06 -2.73352e-06 0)
(1.42663e-08 -2.69336e-06 0)
(1.20848e-06 -2.64369e-06 0)
(2.38057e-06 -2.58447e-06 0)
(3.52652e-06 -2.51576e-06 0)
(4.64227e-06 -2.43761e-06 0)
(5.72379e-06 -2.35013e-06 0)
(6.76714e-06 -2.25347e-06 0)
(7.7684e-06 -2.14777e-06 0)
(8.72368e-06 -2.03319e-06 0)
(9.62933e-06 -1.90995e-06 0)
(1.04817e-05 -1.77834e-06 0)
(1.12772e-05 -1.63867e-06 0)
(1.20125e-05 -1.49131e-06 0)
(1.26845e-05 -1.33663e-06 0)
(1.32901e-05 -1.17504e-06 0)
(1.38266e-05 -1.00703e-06 0)
(1.42914e-05 -8.33183e-07 0)
(1.46823e-05 -6.54085e-07 0)
(1.49971e-05 -4.70412e-07 0)
(1.52341e-05 -2.82932e-07 0)
(1.5392e-05 -9.24816e-08 0)
(1.54698e-05 1.00023e-07 0)
(1.54668e-05 2.93608e-07 0)
(1.53829e-05 4.87243e-07 0)
(1.52182e-05 6.79816e-07 0)
(1.49736e-05 8.70067e-07 0)
(1.46504e-05 1.05659e-06 0)
(1.42504e-05 1.23792e-06 0)
(1.37762e-05 1.41253e-06 0)
(1.3231e-05 1.57869e-06 0)
(1.26187e-05 1.73447e-06 0)
(1.19442e-05 1.87782e-06 0)
(1.1213e-05 2.0065e-06 0)
(1.04316e-05 2.11811e-06 0)
(9.60728e-06 2.21006e-06 0)
(8.74856e-06 2.27954e-06 0)
(7.86482e-06 2.32354e-06 0)
(6.96654e-06 2.33887e-06 0)
(6.06543e-06 2.32213e-06 0)
(5.17426e-06 2.26984e-06 0)
(4.3067e-06 2.17863e-06 0)
(3.47727e-06 2.04546e-06 0)
(2.70115e-06 1.8679e-06 0)
(1.99415e-06 1.64456e-06 0)
(1.37245e-06 1.37627e-06 0)
(8.49978e-07 1.06862e-06 0)
(4.38087e-07 7.34524e-07 0)
(1.54003e-07 3.96238e-07 0)
(2.3192e-08 9.70441e-08 0)
(3.15245e-08 -1.60729e-07 0)
(1.93106e-07 -6.50785e-07 0)
(5.26378e-07 -1.141e-06 0)
(1.0017e-06 -1.59888e-06 0)
(1.59395e-06 -1.99857e-06 0)
(2.28502e-06 -2.33036e-06 0)
(3.05657e-06 -2.59353e-06 0)
(3.88967e-06 -2.79095e-06 0)
(4.76591e-06 -2.92626e-06 0)
(5.66817e-06 -3.00377e-06 0)
(6.57989e-06 -3.02829e-06 0)
(7.48615e-06 -3.00481e-06 0)
(8.37333e-06 -2.93821e-06 0)
(9.22891e-06 -2.83351e-06 0)
(1.00417e-05 -2.69512e-06 0)
(1.08018e-05 -2.52707e-06 0)
(1.15005e-05 -2.33373e-06 0)
(1.21303e-05 -2.11887e-06 0)
(1.26847e-05 -1.88582e-06 0)
(1.31582e-05 -1.63796e-06 0)
(1.35465e-05 -1.37811e-06 0)
(1.3846e-05 -1.10892e-06 0)
(1.40539e-05 -8.33068e-07 0)
(1.41686e-05 -5.52776e-07 0)
(1.41887e-05 -2.70056e-07 0)
(1.41136e-05 1.29861e-08 0)
(1.39436e-05 2.94672e-07 0)
(1.36794e-05 5.73389e-07 0)
(1.33222e-05 8.47484e-07 0)
(1.28737e-05 1.11572e-06 0)
(1.23362e-05 1.37696e-06 0)
(1.1712e-05 1.62999e-06 0)
(1.10041e-05 1.87392e-06 0)
(1.02158e-05 2.10787e-06 0)
(9.35058e-06 2.33086e-06 0)
(8.41239e-06 2.54218e-06 0)
(7.40535e-06 2.74128e-06 0)
(6.33356e-06 2.92759e-06 0)
(5.20144e-06 3.10069e-06 0)
(4.01372e-06 3.26025e-06 0)
(2.77503e-06 3.40583e-06 0)
(1.49018e-06 3.5371e-06 0)
(1.64234e-07 3.65396e-06 0)
(-1.19787e-06 3.75633e-06 0)
(-2.59116e-06 3.84403e-06 0)
(-4.01045e-06 3.91707e-06 0)
(-5.45065e-06 3.97553e-06 0)
(-6.90679e-06 4.01936e-06 0)
(-8.37384e-06 4.04864e-06 0)
(-9.84667e-06 4.06356e-06 0)
(-1.13204e-05 4.06426e-06 0)
(-1.27901e-05 4.0509e-06 0)
(-1.4251e-05 4.0238e-06 0)
(-1.56983e-05 3.98332e-06 0)
(-1.71274e-05 3.92966e-06 0)
(-1.85338e-05 3.86311e-06 0)
(-1.9913e-05 3.78418e-06 0)
(-2.12608e-05 3.69325e-06 0)
(-2.25732e-05 3.59065e-06 0)
(-2.38461e-05 3.47689e-06 0)
(-2.50757e-05 3.35247e-06 0)
(-2.62583e-05 3.21781e-06 0)
(-2.73905e-05 3.07342e-06 0)
(-2.84691e-05 2.91986e-06 0)
(-2.94906e-05 2.75764e-06 0)
(-3.04524e-05 2.58726e-06 0)
(-3.13516e-05 2.40926e-06 0)
(-3.21855e-05 2.22425e-06 0)
(-3.29519e-05 2.03287e-06 0)
(-3.36486e-05 1.83568e-06 0)
(-3.42737e-05 1.63317e-06 0)
(-3.48254e-05 1.42601e-06 0)
(-3.5302e-05 1.21485e-06 0)
(-3.57024e-05 1.00024e-06 0)
(-3.60254e-05 7.82763e-07 0)
(-3.62702e-05 5.63028e-07 0)
(-3.64359e-05 3.41637e-07 0)
(-3.65221e-05 1.19182e-07 0)
(-3.65287e-05 -1.03727e-07 0)
(-3.64555e-05 -3.2642e-07 0)
(-3.63028e-05 -5.48265e-07 0)
(-3.6071e-05 -7.68674e-07 0)
(-3.57607e-05 -9.8705e-07 0)
(-3.53726e-05 -1.20278e-06 0)
(-3.49078e-05 -1.4152e-06 0)
(-3.43676e-05 -1.62372e-06 0)
(-3.37534e-05 -1.82781e-06 0)
(-3.30669e-05 -2.02691e-06 0)
(-3.23099e-05 -2.22039e-06 0)
(-3.14845e-05 -2.4077e-06 0)
(-3.05928e-05 -2.58832e-06 0)
(-2.96374e-05 -2.76173e-06 0)
(-2.86208e-05 -2.92735e-06 0)
(-2.75459e-05 -3.08464e-06 0)
(-2.64157e-05 -3.23312e-06 0)
(-2.52333e-05 -3.37234e-06 0)
(-2.4002e-05 -3.50188e-06 0)
(-2.27252e-05 -3.62131e-06 0)
(-2.14066e-05 -3.73019e-06 0)
(-2.005e-05 -3.82811e-06 0)
(-1.86593e-05 -3.91465e-06 0)
(-1.72386e-05 -3.98937e-06 0)
(-1.5792e-05 -4.052e-06 0)
(-1.43237e-05 -4.10228e-06 0)
(-1.28382e-05 -4.13988e-06 0)
(-1.13401e-05 -4.16452e-06 0)
(-9.83369e-06 -4.17592e-06 0)
(-8.32378e-06 -4.17386e-06 0)
(-6.81508e-06 -4.15818e-06 0)
(-5.31236e-06 -4.12874e-06 0)
(-3.82046e-06 -4.08539e-06 0)
(-2.34414e-06 -4.02806e-06 0)
(-8.88211e-07 -3.95678e-06 0)
(5.42422e-07 -3.87151e-06 0)
(1.94292e-06 -3.7723e-06 0)
(3.30848e-06 -3.65922e-06 0)
(4.63427e-06 -3.53242e-06 0)
(5.91562e-06 -3.39209e-06 0)
(7.1479e-06 -3.2385e-06 0)
(8.32656e-06 -3.07191e-06 0)
(9.44719e-06 -2.89262e-06 0)
(1.05055e-05 -2.70105e-06 0)
(1.14972e-05 -2.49771e-06 0)
(1.24184e-05 -2.28306e-06 0)
(1.32654e-05 -2.05768e-06 0)
(1.40347e-05 -1.82224e-06 0)
(1.47229e-05 -1.57746e-06 0)
(1.53271e-05 -1.32418e-06 0)
(1.58445e-05 -1.06332e-06 0)
(1.62727e-05 -7.95877e-07 0)
(1.66098e-05 -5.22929e-07 0)
(1.6854e-05 -2.45695e-07 0)
(1.70043e-05 3.44901e-08 0)
(1.70599e-05 3.16215e-07 0)
(1.70207e-05 5.97951e-07 0)
(1.68869e-05 8.7801e-07 0)
(1.66594e-05 1.15459e-06 0)
(1.63397e-05 1.42573e-06 0)
(1.59301e-05 1.68926e-06 0)
(1.54336e-05 1.94289e-06 0)
(1.48538e-05 2.18417e-06 0)
(1.41954e-05 2.4104e-06 0)
(1.34638e-05 2.61862e-06 0)
(1.26655e-05 2.80571e-06 0)
(1.18078e-05 2.96828e-06 0)
(1.0899e-05 3.10272e-06 0)
(9.9489e-06 3.20509e-06 0)
(8.96791e-06 3.27126e-06 0)
(7.96775e-06 3.29697e-06 0)
(6.96139e-06 3.27776e-06 0)
(5.96293e-06 3.20907e-06 0)
(4.98746e-06 3.08648e-06 0)
(4.05089e-06 2.9061e-06 0)
(3.16971e-06 2.66514e-06 0)
(2.36082e-06 2.36238e-06 0)
(1.64205e-06 1.99894e-06 0)
(1.0303e-06 1.58035e-06 0)
(5.40115e-07 1.12e-06 0)
(1.94291e-07 6.41427e-07 0)
(3.05973e-08 1.86611e-07 0)
(3.73135e-08 -2.71006e-07 0)
(2.25268e-07 -9.33809e-07 0)
(6.08113e-07 -1.57631e-06 0)
(1.14391e-06 -2.16568e-06 0)
(1.80193e-06 -2.67695e-06 0)
(2.56276e-06 -3.10047e-06 0)
(3.40534e-06 -3.4357e-06 0)
(4.30943e-06 -3.68574e-06 0)
(5.2558e-06 -3.85506e-06 0)
(6.22562e-06 -3.9493e-06 0)
(7.20172e-06 -3.97436e-06 0)
(8.16788e-06 -3.93635e-06 0)
(9.10919e-06 -3.84156e-06 0)
(1.00124e-05 -3.69625e-06 0)
(1.08656e-05 -3.5061e-06 0)
(1.16576e-05 -3.27674e-06 0)
(1.2379e-05 -3.01343e-06 0)
(1.30216e-05 -2.72108e-06 0)
(1.35781e-05 -2.40437e-06 0)
(1.40427e-05 -2.06753e-06 0)
(1.44105e-05 -1.71449e-06 0)
(1.46774e-05 -1.34892e-06 0)
(1.48405e-05 -9.74118e-07 0)
(1.48978e-05 -5.93236e-07 0)
(1.48479e-05 -2.09266e-07 0)
(1.46901e-05 1.75333e-07 0)
(1.44247e-05 5.58181e-07 0)
(1.40524e-05 9.36962e-07 0)
(1.35746e-05 1.30973e-06 0)
(1.29935e-05 1.67464e-06 0)
(1.23113e-05 2.02987e-06 0)
(1.1531e-05 2.37395e-06 0)
(1.0656e-05 2.70556e-06 0)
(9.68977e-06 3.02344e-06 0)
(8.63646e-06 3.32651e-06 0)
(7.50055e-06 3.61385e-06 0)
(6.28665e-06 3.88444e-06 0)
(4.99963e-06 4.1375e-06 0)
(3.64459e-06 4.37252e-06 0)
(2.22675e-06 4.58891e-06 0)
(7.51427e-07 4.78616e-06 0)
(-7.75741e-07 4.96398e-06 0)
(-2.34902e-06 5.12206e-06 0)
(-3.96276e-06 5.26015e-06 0)
(-5.61118e-06 5.37817e-06 0)
(-7.28835e-06 5.47611e-06 0)
(-8.98847e-06 5.55389e-06 0)
(-1.07058e-05 5.61157e-06 0)
(-1.24345e-05 5.64935e-06 0)
(-1.41687e-05 5.66741e-06 0)
(-1.59029e-05 5.66591e-06 0)
(-1.76313e-05 5.64517e-06 0)
(-1.93483e-05 5.60555e-06 0)
(-2.10485e-05 5.54744e-06 0)
(-2.27268e-05 5.47122e-06 0)
(-2.43776e-05 5.37738e-06 0)
(-2.5996e-05 5.26647e-06 0)
(-2.75772e-05 5.13899e-06 0)
(-2.91163e-05 4.99548e-06 0)
(-3.06088e-05 4.83664e-06 0)
(-3.20502e-05 4.6631e-06 0)
(-3.34363e-05 4.47542e-06 0)