/*--------------------------------*- C++ -*----------------------------------*\
  =========                 |
  \\      /  F ield         | OpenFOAM: The Open Source CFD Toolbox
   \\    /   O peration     | Website:  https://openfoam.org
    \\  /    A nd           | Version:  7
     \\/     M anipulation  |
\*---------------------------------------------------------------------------*/
FoamFile
{
    version     2.0;
    format      ascii;
    class       volScalarField;
    location    "0.1875";
    object      p;
}
// * * * * * * * * * * * * * * * * * * * * * * * * * * * * * * * * * * * * * //

dimensions      [0 2 -2 0 0 0 0];

internalField   nonuniform List<scalar> 
12800
(
-9.65446e-07
0.000179656
-0.000907037
-0.0033522
-0.00691077
-0.0113359
-0.0163944
-0.0218732
-0.0275853
-0.0333706
-0.0390931
-0.0446374
-0.0499061
-0.0548178
-0.0593045
-0.0633102
-0.0667893
-0.0697049
-0.0720283
-0.0737375
-0.0748169
-0.0752561
-0.0750493
-0.0741948
-0.0726945
-0.0705535
-0.0677793
-0.0643819
-0.0603733
-0.055767
-0.0505778
-0.0448218
-0.038516
-0.031678
-0.0243258
-0.016478
-0.00815333
0.000629541
0.00985184
0.019495
0.0295406
0.0399707
0.0507675
0.0619138
0.0733928
0.0851882
0.0972842
0.109666
0.122318
0.135227
0.14838
0.161764
0.175367
0.189177
0.203183
0.217375
0.231744
0.24628
0.260974
0.27582
0.290808
0.305933
0.321188
0.336566
0.352062
0.367672
0.38339
0.399212
0.415134
0.431152
0.447262
0.463462
0.479749
0.49612
0.512572
0.529103
0.545711
0.562392
0.579147
0.595971
0.612863
0.629821
0.646843
0.663926
0.681067
0.698264
0.715513
0.732813
0.750158
0.767546
0.784972
0.802431
0.819919
0.837429
0.854956
0.872492
0.890031
0.907565
0.925084
0.94258
0.960042
0.977458
0.994818
1.01211
1.02932
1.04642
1.06342
1.08029
1.097
1.11355
1.12992
1.14608
1.16201
1.1777
1.1931
1.20821
1.223
1.23744
1.2515
1.26517
1.2784
1.29117
1.30345
1.31522
1.32644
1.3371
1.34715
1.35657
1.36534
1.37342
1.3808
1.38746
1.39336
1.3985
1.40285
1.40641
1.40917
1.41111
1.41223
1.41255
1.41207
1.4108
1.40876
1.40599
1.40251
1.39838
1.39365
1.38839
1.38267
1.3766
1.3703
1.36388
1.35751
1.35138
1.34569
1.34068
1.33664
1.33383
1.33255
1.33271
-0.000184202
-2.41224e-06
-0.00100623
-0.00313934
-0.00617775
-0.00994594
-0.0142703
-0.0189801
-0.0239188
-0.0289472
-0.0339433
-0.0388012
-0.0434294
-0.0477501
-0.0516975
-0.0552162
-0.0582603
-0.0607924
-0.0627821
-0.0642061
-0.0650467
-0.0652911
-0.0649315
-0.0639639
-0.0623877
-0.0602055
-0.0574226
-0.0540465
-0.0500868
-0.0455547
-0.0404629
-0.0348254
-0.0286568
-0.0219729
-0.01479
-0.00712459
0.0010062
0.00958525
0.0185953
0.0280193
0.0378401
0.0480409
0.0586052
0.0695167
0.0807597
0.0923186
0.104178
0.116325
0.128744
0.141422
0.154347
0.167505
0.180886
0.194478
0.208271
0.222254
0.236417
0.250753
0.265251
0.279905
0.294707
0.309649
0.324725
0.33993
0.355256
0.3707
0.386255
0.401918
0.417684
0.433549
0.44951
0.465562
0.481702
0.497928
0.514237
0.530626
0.547091
0.563631
0.580243
0.596924
0.613672
0.630485
0.647358
0.664291
0.681279
0.69832
0.71541
0.732546
0.749723
0.766938
0.784186
0.801462
0.81876
0.836074
0.853398
0.870726
0.888049
0.905359
0.922647
0.939904
0.957119
0.974282
0.991379
1.0084
1.02533
1.04215
1.05886
1.07542
1.09183
1.10807
1.12412
1.13996
1.15556
1.17091
1.18599
1.20077
1.21522
1.22933
1.24306
1.25639
1.2693
1.28176
1.29374
1.30521
1.31615
1.32654
1.33634
1.34553
1.35409
1.362
1.36922
1.37575
1.38157
1.38665
1.39099
1.39457
1.39739
1.39944
1.40073
1.40126
1.40105
1.4001
1.39844
1.39611
1.39313
1.38956
1.38545
1.38086
1.37589
1.37061
1.36513
1.35958
1.3541
1.34885
1.344
1.33976
1.33632
1.33388
1.33271
1.33288
0.000898061
0.00100039
-3.97498e-06
-0.00198887
-0.0047389
-0.00811198
-0.0119678
-0.0161647
-0.0205692
-0.0250601
-0.0295285
-0.0338778
-0.0380237
-0.0418931
-0.0454234
-0.0485611
-0.0512612
-0.0534865
-0.0552066
-0.0563975
-0.0570404
-0.0571214
-0.0566312
-0.0555641
-0.0539181
-0.051694
-0.0488953
-0.0455279
-0.0415994
-0.0371194
-0.0320989
-0.0265501
-0.0204863
-0.0139214
-0.00687026
0.000651938
0.00862955
0.0170467
0.0258875
0.0351358
0.0447758
0.0547915
0.0651675
0.0758883
0.0869389
0.0983045
0.109971
0.121924
0.134151
0.146639
0.159375
0.172347
0.185544
0.198955
0.212569
0.226376
0.240368
0.254535
0.268869
0.283361
0.298005
0.312793
0.327718
0.342775
0.357957
0.373259
0.388676
0.404203
0.419835
0.435569
0.4514
0.467324
0.483339
0.49944
0.515625
0.53189
0.548232
0.564649
0.581138
0.597696
0.614319
0.631005
0.647751
0.664554
0.681411
0.698317
0.71527
0.732265
0.749298
0.766365
0.78346
0.800579
0.817715
0.834863
0.852016
0.869167
0.886307
0.903429
0.920523
0.93758
0.954589
0.971539
0.988418
1.00521
1.02191
1.0385
1.05496
1.07128
1.08744
1.10343
1.11921
1.13479
1.15013
1.16521
1.18002
1.19452
1.2087
1.22254
1.23601
1.24908
1.26173
1.27394
1.28568
1.29692
1.30764
1.31782
1.32743
1.33644
1.34485
1.35261
1.35972
1.36616
1.37191
1.37696
1.38129
1.3849
1.38779
1.38994
1.39137
1.39208
1.39208
1.39139
1.39004
1.38805
1.38547
1.38233
1.37869
1.37463
1.3702
1.3655
1.36063
1.3557
1.35083
1.34617
1.34186
1.33807
1.33497
1.33271
1.33154
1.3316
0.00334207
0.0031345
0.00197743
-1.23529e-05
-0.00265572
-0.00582906
-0.00941213
-0.0132844
-0.0173313
-0.0214467
-0.0255339
-0.029506
-0.033286
-0.0368064
-0.0400087
-0.0428421
-0.0452637
-0.0472374
-0.0487335
-0.049728
-0.050202
-0.0501411
-0.0495351
-0.0483775
-0.0466652
-0.0443979
-0.0415777
-0.0382092
-0.0342989
-0.029855
-0.024887
-0.019406
-0.0134237
-0.00695303
-7.4948e-06
0.00739886
0.0152516
0.0235359
0.0322368
0.0413393
0.0508284
0.0606892
0.0709068
0.0814666
0.0923543
0.103556
0.115057
0.126846
0.138908
0.151232
0.163805
0.176616
0.189653
0.202906
0.216365
0.23002
0.243861
0.257881
0.272069
0.28642
0.300924
0.315575
0.330366
0.345291
0.360344
0.37552
0.390813
0.406217
0.42173
0.437345
0.453059
0.468869
0.484769
0.500757
0.51683
0.532983
0.549214
0.565519
0.581896
0.598341
0.61485
0.631422
0.648052
0.664738
0.681475
0.698259
0.715088
0.731956
0.74886
0.765793
0.782752
0.799731
0.816724
0.833724
0.850724
0.867718
0.884697
0.901653
0.918576
0.935458
0.952286
0.969051
0.985741
1.00234
1.01884
1.03523
1.05148
1.06759
1.08353
1.0993
1.11487
1.13022
1.14533
1.16019
1.17477
1.18905
1.203
1.21662
1.22986
1.24272
1.25516
1.26716
1.2787
1.28976
1.3003
1.31031
1.31976
1.32864
1.33692
1.34458
1.35161
1.35798
1.36369
1.36871
1.37305
1.37669
1.37964
1.38188
1.38343
1.38429
1.38448
1.38401
1.3829
1.3812
1.37893
1.37614
1.37287
1.3692
1.36519
1.36093
1.35649
1.35199
1.34753
1.34324
1.33924
1.33569
1.33271
1.33045
1.3291
1.32879
0.00691053
0.00618273
0.00472919
0.00261752
-3.63994e-05
-0.00312639
-0.00654929
-0.0102035
-0.0139913
-0.0178209
-0.0216073
-0.0252736
-0.0287503
-0.0319761
-0.0348967
-0.0374652
-0.0396412
-0.0413905
-0.0426845
-0.0434998
-0.0438177
-0.0436239
-0.0429078
-0.0416625
-0.039884
-0.0375711
-0.0347252
-0.0313498
-0.0274501
-0.0230334
-0.0181081
-0.012684
-0.00677179
-0.000383256
0.00646921
0.0137726
0.0215135
0.0296781
0.0382525
0.0472224
0.0565738
0.0662925
0.0763645
0.0867757
0.0975127
0.108562
0.11991
0.131544
0.143453
0.155623
0.168043
0.180702
0.193588
0.206693
0.220004
0.233514
0.247212
0.261091
0.275141
0.289355
0.303725
0.318245
0.332907
0.347705
0.362634
0.377686
0.392859
0.408145
0.42354
0.43904
0.454641
0.470337
0.486126
0.502003
0.517966
0.534009
0.55013
0.566326
0.582592
0.598927
0.615325
0.631785
0.648301
0.664871
0.681491
0.698157
0.714864
0.731608
0.748385
0.76519
0.782016
0.798859
0.815713
0.83257
0.849424
0.866267
0.883091
0.899888
0.916648
0.933363
0.95002
0.96661
0.983119
0.999537
1.01585
1.03204
1.0481
1.06401
1.07976
1.09532
1.11068
1.12582
1.14073
1.15538
1.16975
1.18382
1.19757
1.21098
1.22403
1.23669
1.24894
1.26076
1.27212
1.28301
1.29339
1.30326
1.31258
1.32133
1.32951
1.33708
1.34403
1.35035
1.35603
1.36104
1.3654
1.36907
1.37208
1.37441
1.37607
1.37707
1.37743
1.37716
1.37628
1.37482
1.37282
1.37033
1.36738
1.36405
1.36038
1.35646
1.35236
1.34819
1.34402
1.33998
1.33618
1.33272
1.32973
1.32733
1.32565
1.32474
0.0113674
0.00997778
0.00811553
0.00578313
0.00301919
-8.69626e-05
-0.00344694
-0.00697625
-0.0105926
-0.0142173
-0.017777
-0.0212039
-0.0244366
-0.0274198
-0.0301042
-0.0324469
-0.0344104
-0.0359629
-0.0370774
-0.0377316
-0.0379076
-0.0375913
-0.0367722
-0.0354431
-0.0335998
-0.0312404
-0.0283657
-0.0249783
-0.0210828
-0.0166853
-0.0117936
-0.00641624
-0.000563182
0.00575488
0.0125265
0.0197395
0.0273816
0.0354397
0.0439008
0.0527514
0.0619784
0.0715682
0.0815076
0.0917832
0.102382
0.113291
0.124498
0.13599
0.147755
0.159783
0.17206
0.184577
0.197323
0.210288
0.223461
0.236834
0.250397
0.264142
0.278061
0.292146
0.306389
0.320783
0.335322
0.349999
0.364808
0.379743
0.394799
0.409971
0.425253
0.440642
0.456132
0.471719
0.4874
0.503169
0.519024
0.534961
0.550975
0.567064
0.583223
0.59945
0.61574
0.63209
0.648495
0.664953
0.68146
0.69801
0.714599
0.731224
0.747879
0.764558
0.781257
0.79797
0.814689
0.831409
0.848123
0.864822
0.881499
0.898146
0.914752
0.931308
0.947804
0.964228
0.980569
0.996815
1.01295
1.02897
1.04485
1.06057
1.07613
1.09151
1.10668
1.12163
1.13635
1.15081
1.16499
1.17887
1.19244
1.20567
1.21854
1.23102
1.2431
1.25476
1.26597
1.27671
1.28695
1.29669
1.30589
1.31455
1.32263
1.33013
1.33703
1.34331
1.34896
1.35397
1.35834
1.36206
1.36513
1.36754
1.36931
1.37044
1.37095
1.37085
1.37017
1.36893
1.36717
1.36492
1.36224
1.35918
1.35578
1.35213
1.34829
1.34435
1.34038
1.33649
1.33275
1.32928
1.32617
1.32353
1.32138
1.31973
0.0164916
0.0143548
0.0120034
0.00937096
0.00641368
0.00320605
-0.00017576
-0.00366266
-0.00718642
-0.0106806
-0.0140822
-0.0173326
-0.0203778
-0.0231687
-0.0256614
-0.0278169
-0.0296013
-0.0309853
-0.0319438
-0.032456
-0.0325051
-0.0320778
-0.0311638
-0.0297561
-0.0278502
-0.0254442
-0.0225384
-0.0191349
-0.0152376
-0.0108521
-0.00598522
-0.000644897
0.00515979
0.0114189
0.0181218
0.0252573
0.0328136
0.0407786
0.04914
0.0578852
0.0670015
0.0764762
0.0862966
0.09645
0.106924
0.117706
0.128784
0.140147
0.151781
0.163678
0.175824
0.188211
0.200826
0.213661
0.226706
0.239952
0.253389
0.26701
0.280805
0.294768
0.308891
0.323167
0.33759
0.352151
0.366847
0.38167
0.396616
0.411679
0.426853
0.442135
0.45752
0.473002
0.488578
0.504244
0.519996
0.535829
0.551741
0.567726
0.583782
0.599905
0.61609
0.632334
0.648633
0.664983
0.68138
0.697819
0.714295
0.730805
0.747343
0.763903
0.78048
0.797068
0.81366
0.830251
0.846831
0.863395
0.879933
0.896438
0.912899
0.929308
0.945653
0.961923
0.978108
0.994195
1.01017
1.02602
1.04173
1.05729
1.07268
1.08789
1.10289
1.11767
1.13222
1.14651
1.16052
1.17423
1.18764
1.2007
1.21341
1.22575
1.23768
1.24919
1.26027
1.27088
1.28101
1.29064
1.29975
1.30832
1.31633
1.32377
1.33062
1.33688
1.34252
1.34754
1.35193
1.35569
1.35881
1.36131
1.36317
1.36442
1.36507
1.36512
1.36461
1.36355
1.36199
1.35995
1.35748
1.35463
1.35144
1.34799
1.34433
1.34053
1.33667
1.33282
1.32907
1.32549
1.32217
1.31919
1.31649
1.31399
0.0220816
0.019152
0.0162581
0.0132661
0.0100503
0.00667286
0.00319991
-0.000313308
-0.00381125
-0.00723847
-0.0105417
-0.0136707
-0.0165786
-0.0192225
-0.0215638
-0.0235677
-0.0252037
-0.0264454
-0.02727
-0.0276585
-0.0275953
-0.0270681
-0.0260673
-0.0245862
-0.0226206
-0.0201685
-0.01723
-0.0138068
-0.00990271
-0.00552255
-0.000672627
0.00463965
0.0104059
0.0166167
0.0232623
0.0303321
0.037815
0.0456996
0.0539742
0.062627
0.0716458
0.0810186
0.0907331
0.100777
0.111139
0.121807
0.132769
0.144014
0.15553
0.167307
0.179333
0.1916
0.204096
0.216812
0.229738
0.242865
0.256185
0.26969
0.283371
0.29722
0.311231
0.325396
0.339708
0.354161
0.36875
0.383467
0.398308
0.413267
0.428339
0.443519
0.458802
0.474184
0.48966
0.505227
0.520879
0.536613
0.552426
0.568312
0.584268
0.60029
0.616375
0.632517
0.648714
0.66496
0.681251
0.697584
0.713952
0.730352
0.746778
0.763224
0.779685
0.796155
0.812627
0.829094
0.845549
0.861985
0.878393
0.894765
0.911091
0.927362
0.943566
0.959695
0.975735
0.991675
1.0075
1.0232
1.03876
1.05417
1.06941
1.08446
1.09931
1.11393
1.12833
1.14246
1.15632
1.16989
1.18315
1.19608
1.20865
1.22085
1.23265
1.24405
1.25501
1.26551
1.27555
1.28509
1.29412
1.30262
1.31058
1.31797
1.3248
1.33103
1.33667
1.3417
1.34612
1.34993
1.35311
1.35568
1.35764
1.35899
1.35975
1.35994
1.35957
1.35867
1.35727
1.35539
1.35309
1.3504
1.34737
1.34405
1.34049
1.33677
1.33294
1.32906
1.32521
1.32144
1.31783
1.31446
1.31115
1.30777
0.0279624
0.0242213
0.0207524
0.0173585
0.0138353
0.0102348
0.00661506
0.00301915
-0.000508652
-0.00392277
-0.00717872
-0.010234
-0.0130487
-0.0155858
-0.0178117
-0.0196959
-0.0212116
-0.0223351
-0.0230463
-0.023328
-0.0231662
-0.0225498
-0.02147
-0.0199208
-0.0178983
-0.0154008
-0.0124283
-0.00898259
-0.00506701
-0.000686225
0.00415389
0.00944637
0.0151833
0.0213559
0.0279548
0.0349701
0.0423912
0.0502074
0.0584076
0.0669804
0.0759143
0.0851977
0.0948189
0.104766
0.115029
0.125594
0.136452
0.147591
0.159
0.170669
0.182586
0.194743
0.20713
0.219736
0.232553
0.245572
0.258784
0.272181
0.285755
0.299499
0.313404
0.327465
0.341675
0.356026
0.370513
0.385131
0.399872
0.414733
0.429707
0.44479
0.459977
0.475263
0.490644
0.506115
0.521673
0.537312
0.55303
0.568821
0.584681
0.600607
0.616595
0.63264
0.648738
0.664884
0.681075
0.697305
0.71357
0.729865
0.746184
0.762522
0.778873
0.79523
0.811588
0.827939
0.844277
0.860593
0.876879
0.893126
0.909326
0.925469
0.941544
0.95754
0.973448
0.989253
1.00494
1.02051
1.03593
1.0512
1.0663
1.08121
1.09592
1.11041
1.12467
1.13867
1.1524
1.16584
1.17897
1.19177
1.20423
1.21631
1.22801
1.23931
1.25017
1.26059
1.27054
1.28001
1.28898
1.29744
1.30535
1.31272
1.31953
1.32576
1.3314
1.33645
1.34091
1.34475
1.348
1.35064
1.35268
1.35413
1.35499
1.35529
1.35505
1.35427
1.353
1.35126
1.34908
1.3465
1.34357
1.34033
1.33683
1.33312
1.32925
1.32528
1.32127
1.31725
1.3133
1.30948
1.30554
1.30126
0.033983
0.0294302
0.0253697
0.0215458
0.0176796
0.0138153
0.0100047
0.00628032
0.00267663
-0.000769551
-0.00402169
-0.00704448
-0.00980435
-0.0122699
-0.0144124
-0.0162056
-0.0176261
-0.0186534
-0.0192699
-0.0194605
-0.0192129
-0.0185172
-0.0173658
-0.0157536
-0.013677
-0.0111349
-0.00812738
-0.00465639
-0.000725164
0.0036618
0.00849883
0.0137793
0.0194956
0.0256394
0.0322018
0.0391732
0.0465438
0.0543031
0.0624406
0.0709454
0.0798064
0.0890126
0.0985528
0.108416
0.118591
0.129066
0.139831
0.150876
0.162189
0.17376
0.18558
0.197638
0.209925
0.222432
0.235149
0.248069
0.261181
0.274479
0.287955
0.3016
0.315409
0.329373
0.343486
0.357742
0.372135
0.386658
0.401307
0.416074
0.430956
0.445948
0.461043
0.476238
0.491529
0.506909
0.522376
0.537925
0.553551
0.569251
0.58502
0.600854
0.616749
0.6327
0.648704
0.664755
0.68085
0.696983
0.713149
0.729344
0.745562
0.761797
0.778043
0.794295
0.810545
0.826787
0.843014
0.859217
0.875389
0.891521
0.907604
0.923628
0.939584
0.955459
0.971244
0.986927
1.0025
1.01794
1.03323
1.04838
1.06335
1.07814
1.09273
1.1071
1.12124
1.13512
1.14874
1.16207
1.17509
1.18779
1.20014
1.21214
1.22375
1.23496
1.24574
1.25609
1.26599
1.27541
1.28433
1.29275
1.30064
1.30799
1.31479
1.32103
1.32669
1.33176
1.33625
1.34015
1.34345
1.34616
1.34828
1.34981
1.35077
1.35117
1.35102
1.35035
1.34918
1.34753
1.34544
1.34294
1.34007
1.33686
1.33336
1.32961
1.32566
1.32155
1.31732
1.31302
1.30869
1.30439
1.2998
1.29463
0.0400147
0.0346612
0.0300043
0.0257332
0.0214993
0.017341
0.0133053
0.00941604
0.00569899
0.00218331
-0.00110161
-0.00412697
-0.00686508
-0.00928983
-0.011377
-0.0131044
-0.0144523
-0.0154031
-0.0159417
-0.0160553
-0.0157334
-0.0149675
-0.0137514
-0.0120806
-0.00995258
-0.0073665
-0.004323
-0.000824141
0.00312674
0.00752515
0.0123655
0.0176413
0.0233453
0.0294694
0.036005
0.0429429
0.0502736
0.0579871
0.0660734
0.0745218
0.0833218
0.0924627
0.101934
0.111724
0.121823
0.13222
0.142904
0.153866
0.165094
0.176579
0.188311
0.200281
0.212479
0.224896
0.237523
0.250352
0.263374
0.276582
0.289967
0.303523
0.317241
0.331116
0.34514
0.359308
0.373612
0.388048
0.402608
0.417289
0.432084
0.446989
0.461998
0.477107
0.492312
0.507606
0.522987
0.538449
0.553989
0.569602
0.585284
0.60103
0.616837
0.632699
0.648613
0.664574
0.680576
0.696617
0.712689
0.728789
0.744911
0.761049
0.777197
0.793348
0.809498
0.825637
0.84176
0.857859
0.873925
0.88995
0.905924
0.921839
0.937685
0.95345
0.969124
0.984695
1.00015
1.01548
1.03067
1.0457
1.06057
1.07525
1.08973
1.10399
1.11803
1.13181
1.14533
1.15856
1.1715
1.18411
1.19638
1.2083
1.21984
1.23098
1.24172
1.25201
1.26186
1.27124
1.28014
1.28854
1.29642
1.30377
1.31057
1.31682
1.32251
1.32762
1.33215
1.3361
1.33946
1.34223
1.34442
1.34603
1.34707
1.34756
1.34749
1.3469
1.34581
1.34423
1.3422
1.33974
1.33688
1.33367
1.33013
1.3263
1.32222
1.31793
1.31345
1.30882
1.30409
1.2993
1.29406
1.28801
0.0459468
0.0398112
0.0345609
0.0298339
0.0252163
0.0207423
0.0164559
0.0123732
0.00851282
0.00489707
0.00154904
-0.00150836
-0.0042528
-0.006663
-0.00871908
-0.0104028
-0.0116977
-0.0125893
-0.013065
-0.0131142
-0.0127282
-0.0119003
-0.0106253
-0.00889996
-0.00672262
-0.00409304
-0.00101237
0.002517
0.0064915
0.0109065
0.0157564
0.0210348
0.0267345
0.0328476
0.0393658
0.0462802
0.0535815
0.0612601
0.0693061
0.0777095
0.08646
0.0955471
0.104961
0.11469
0.124725
0.135054
0.145669
0.156559
0.167713
0.179123
0.190778
0.20267
0.214789
0.227126
0.239672
0.25242
0.26536
0.278486
0.291789
0.305263
0.318899
0.332692
0.346634
0.36072
0.374942
0.389296
0.403776
0.418375
0.433089
0.447913
0.462841
0.477869
0.492992
0.508205
0.523504
0.538885
0.554343
0.569873
0.585472
0.601135
0.616857
0.632635
0.648463
0.664338
0.680254
0.696206
0.71219
0.7282
0.744231
0.760277
0.776332
0.79239
0.808445
0.824489
0.840516
0.856517
0.872485
0.88841
0.904286
0.920101
0.935846
0.95151
0.967084
0.982555
0.997911
1.01314
1.02823
1.04317
1.05793
1.07252
1.08691
1.10108
1.11503
1.12873
1.14217
1.15533
1.16819
1.18073
1.19294
1.2048
1.21628
1.22738
1.23807
1.24834
1.25816
1.26752
1.2764
1.28479
1.29268
1.30003
1.30686
1.31314
1.31885
1.32401
1.32859
1.33259
1.33601
1.33884
1.3411
1.34278
1.3439
1.34445
1.34446
1.34393
1.34289
1.34136
1.33936
1.33691
1.33404
1.33079
1.32718
1.32323
1.31899
1.31449
1.30973
1.30475
1.2996
1.29431
1.28843
1.28153
0.051684
0.0447891
0.0389541
0.0337689
0.0287582
0.0239539
0.019398
0.0151003
0.011073
0.00733262
0.0038967
0.000782882
-0.00199137
-0.00440925
-0.00645492
-0.0081138
-0.00937271
-0.01022
-0.0106457
-0.0106414
-0.0102002
-0.00931705
-0.00798826
-0.0062117
-0.0039866
-0.00131353
0.0018058
0.00536849
0.00937066
0.0138074
0.0186731
0.0239612
0.0296645
0.0357753
0.0422853
0.0491859
0.056468
0.0641222
0.072139
0.0805085
0.0892206
0.0982654
0.107633
0.117312
0.127294
0.137568
0.148125
0.158954
0.170045
0.18139
0.192979
0.204803
0.216852
0.229119
0.241594
0.254269
0.267137
0.28019
0.293419
0.306818
0.32038
0.334098
0.347966
0.361976
0.376124
0.390402
0.404807
0.419331
0.433969
0.448717
0.463569
0.478521
0.493568
0.508705
0.523927
0.539231
0.554611
0.570063
0.585584
0.601168
0.616811
0.632508
0.648255
0.664048
0.679882
0.695751
0.711651
0.727577
0.743522
0.759482
0.77545
0.791421
0.807387
0.823342
0.839279
0.85519
0.871067
0.886902
0.902686
0.91841
0.934064
0.949638
0.965121
0.980503
0.99577
1.01091
1.02592
1.04077
1.05545
1.06996
1.08427
1.09837
1.11224
1.12587
1.13925
1.15234
1.16514
1.17764
1.1898
1.20162
1.21307
1.22413
1.2348
1.24505
1.25486
1.26421
1.2731
1.2815
1.2894
1.29678
1.30363
1.30995
1.31571
1.32091
1.32554
1.3296
1.33308
1.33598
1.33831
1.34006
1.34123
1.34185
1.34191
1.34144
1.34044
1.33893
1.33694
1.33448
1.33157
1.32825
1.32454
1.32046
1.31603
1.31128
1.30623
1.30089
1.29531
1.28952
1.283
1.27529
0.0571436
0.0495145
0.0431069
0.0374657
0.032058
0.0269145
0.0220761
0.0175474
0.0133352
0.00945098
0.00590733
0.00271729
-0.000106086
-0.00255007
-0.0046026
-0.00625251
-0.00748973
-0.00830541
-0.00869197
-0.0086432
-0.00815423
-0.00722155
-0.00584297
-0.00401756
-0.00174559
0.000971546
0.00413141
0.00773058
0.0117647
0.0162286
0.0211162
0.0264211
0.0321359
0.0382529
0.044764
0.0516604
0.0589334
0.0665738
0.074572
0.0829184
0.0916034
0.100617
0.109949
0.119591
0.129531
0.139761
0.15027
0.161049
0.172088
0.183379
0.194912
0.206677
0.218668
0.230873
0.243287
0.255899
0.268703
0.281691
0.294855
0.308188
0.321683
0.335334
0.349134
0.363076
0.377155
0.391365
0.4057
0.420154
0.434723
0.449401
0.464183
0.479064
0.494039
0.509105
0.524255
0.539486
0.554793
0.570172
0.585619
0.601128
0.616696
0.632317
0.647988
0.663704
0.67946
0.695251
0.711072
0.726918
0.742783
0.758662
0.774549
0.790438
0.806322
0.822195
0.838049
0.853877
0.869671
0.885423
0.901124
0.916766
0.932338
0.947831
0.963234
0.978536
0.993726
1.00879
1.02372
1.0385
1.05311
1.06755
1.0818
1.09584
1.10965
1.12323
1.13655
1.1496
1.16237
1.17482
1.18695
1.19874
1.21018
1.22123
1.23189
1.24213
1.25195
1.26132
1.27022
1.27864
1.28657
1.29399
1.30089
1.30725
1.31306
1.31832
1.32301
1.32713
1.33068
1.33364
1.33603
1.33784
1.33908
1.33975
1.33986
1.33943
1.33845
1.33695
1.33495
1.33246
1.3295
1.32609
1.32225
1.31801
1.31337
1.30837
1.30301
1.2973
1.29128
1.285
1.27787
1.26937
0.0622534
0.053916
0.0469503
0.0408587
0.0350542
0.029567
0.0244378
0.0196669
0.0152564
0.0112136
0.00754672
0.00426472
0.00137669
-0.00110836
-0.00318185
-0.0048358
-0.00606307
-0.00685744
-0.00721376
-0.00712794
-0.00659702
-0.00561917
-0.00419368
-0.00232087
-2.10649e-06
0.00276032
0.00596317
0.00960236
0.013673
0.0181696
0.0230857
0.0284147
0.034149
0.0402808
0.046802
0.053704
0.060978
0.0686148
0.0766051
0.0849394
0.0936082
0.102602
0.11191
0.121525
0.131434
0.14163
0.152103
0.162843
0.173841
0.185088
0.196575
0.208293
0.220234
0.232389
0.244749
0.257308
0.270057
0.282988
0.296095
0.30937
0.322806
0.336397
0.350137
0.364018
0.378035
0.392183
0.406455
0.420846
0.43535
0.449964
0.46468
0.479496
0.494405
0.509404
0.524487
0.53965
0.554889
0.570199
0.585576
0.601015
0.616513
0.632063
0.647662
0.663306
0.678989
0.694706
0.710453
0.726224
0.742015
0.757818
0.77363
0.789442
0.80525
0.821047
0.836824
0.852576
0.868295
0.883971
0.899598
0.915166
0.930665
0.946086
0.961418
0.976651
0.991774
1.00677
1.02164
1.03636
1.05092
1.0653
1.07949
1.09349
1.10726
1.1208
1.13408
1.1471
1.15984
1.17228
1.18439
1.19618
1.2076
1.21866
1.22933
1.23959
1.24942
1.25882
1.26775
1.27621
1.28419
1.29165
1.2986
1.30502
1.3109
1.31622
1.32098
1.32517
1.32878
1.33182
1.33427
1.33615
1.33744
1.33816
1.33832
1.33791
1.33695
1.33545
1.33342
1.33088
1.32785
1.32433
1.32036
1.31594
1.31108
1.30581
1.30013
1.29404
1.28759
1.28083
1.2731
1.26384
0.0669497
0.05793
0.050422
0.043888
0.0376898
0.0318578
0.0264333
0.0214128
0.0167948
0.0125825
0.00878074
0.00539468
0.00242989
-0.000108021
-0.00221362
-0.00388192
-0.00510852
-0.00588974
-0.00622271
-0.00610546
-0.0055369
-0.00451688
-0.00304616
-0.00112635
0.00124004
0.00404973
0.00729865
0.010982
0.0150943
0.0196295
0.0245809
0.0299414
0.0357033
0.0418588
0.0483994
0.0553167
0.0626016
0.0702453
0.0782383
0.0865713
0.0952349
0.10422
0.113516
0.123114
0.133004
0.143178
0.153625
0.164337
0.175305
0.186518
0.19797
0.20965
0.221551
0.233664
0.245982
0.258495
0.271198
0.284082
0.297139
0.310364
0.323749
0.337288
0.350974
0.364801
0.378763
0.392855
0.40707
0.421404
0.43585
0.450405
0.465062
0.479817
0.494665
0.509602
0.524623
0.539723
0.554899
0.570145
0.585457
0.60083
0.616261
0.631745
0.647277
0.662852
0.678467
0.694116
0.709793
0.725495
0.741216
0.756949
0.77269
0.788433
0.804171
0.819897
0.835605
0.851288
0.866937
0.882546
0.898106
0.913607
0.929042
0.9444
0.959671
0.974845
0.989911
1.00486
1.01967
1.03434
1.04885
1.06319
1.07735
1.09131
1.10505
1.11856
1.13183
1.14483
1.15756
1.16999
1.18211
1.1939
1.20534
1.21641
1.2271
1.23739
1.24727
1.2567
1.26568
1.2742
1.28223
1.28976
1.29677
1.30326
1.30921
1.31461
1.31944
1.32371
1.3274
1.33051
1.33303
1.33497
1.33632
1.33709
1.33727
1.33689
1.33593
1.33442
1.33236
1.32977
1.32665
1.32302
1.31889
1.31428
1.30919
1.30364
1.29764
1.29117
1.2843
1.27706
1.26875
1.25878
0.071176
0.0614995
0.0534657
0.0464988
0.0399122
0.033737
0.0280156
0.0227415
0.0179098
0.0135206
0.00957558
0.00607655
0.00302594
0.000426315
-0.00171983
-0.00341025
-0.00464314
-0.00541721
-0.00573181
-0.005587
-0.00498353
-0.00392292
-0.00240739
-0.000439884
0.00197593
0.00483572
0.00813452
0.0118668
0.0160263
0.0206066
0.0256004
0.0310003
0.0367983
0.0429864
0.0495559
0.0564983
0.0638044
0.0714654
0.0794718
0.0878145
0.0964838
0.105471
0.114765
0.124358
0.134241
0.144403
0.154836
0.16553
0.176478
0.187668
0.199095
0.210747
0.222618
0.2347
0.246983
0.259461
0.272126
0.284971
0.297988
0.311171
0.324512
0.338006
0.351646
0.365426
0.37934
0.393382
0.407547
0.421829
0.436223
0.450724
0.465327
0.480027
0.49482
0.5097
0.524663
0.539706
0.554822
0.570008
0.58526
0.600572
0.615942
0.631363
0.646832
0.662345
0.677895
0.69348
0.709093
0.72473
0.740386
0.756055
0.771731
0.787409
0.803082
0.818744
0.834389
0.850009
0.865597
0.881145
0.896645
0.912089
0.927467
0.942771
0.95799
0.973114
0.988132
1.00303
1.01781
1.03244
1.04692
1.06123
1.07536
1.08929
1.10302
1.11652
1.12978
1.14279
1.15552
1.16796
1.18009
1.1919
1.20337
1.21448
1.22521
1.23554
1.24547
1.25496
1.26401
1.27259
1.28069
1.2883
1.29539
1.30196
1.30799
1.31347
1.31839
1.32274
1.32652
1.3297
1.3323
1.3343
1.33571
1.33653
1.33675
1.33638
1.33543
1.3339
1.3318
1.32913
1.32592
1.32217
1.31788
1.31307
1.30775
1.30192
1.29559
1.28876
1.28147
1.27376
1.26489
1.25423
0.0748821
0.0645731
0.05603
0.0486406
0.0416724
0.0351577
0.0291402
0.023611
0.0185623
0.0139917
0.00989782
0.00627974
0.00313703
0.000469461
-0.00172314
-0.00344109
-0.004685
-0.00545588
-0.0057552
-0.00558497
-0.00494775
-0.00384667
-0.00228545
-0.00026838
0.00219968
0.00511333
0.00846666
0.0122533
0.0164664
0.0210987
0.0261426
0.0315901
0.0374331
0.043663
0.0502712
0.0572487
0.0645865
0.0722754
0.0803061
0.0886692
0.0973555
0.106356
0.11566
0.125259
0.135144
0.145306
0.155736
0.166424
0.177361
0.18854
0.199951
0.211586
0.223437
0.235496
0.247755
0.260206
0.272842
0.285656
0.298641
0.31179
0.325095
0.338552
0.352153
0.365893
0.379765
0.393764
0.407885
0.422122
0.436469
0.450923
0.465477
0.480127
0.494869
0.509698
0.524609
0.539597
0.554659
0.56979
0.584986
0.600242
0.615554
0.630918
0.646329
0.661782
0.677274
0.692799
0.708352
0.72393
0.739525
0.755134
0.770751
0.786369
0.801984
0.817588
0.833176
0.848739
0.864272
0.879766
0.895214
0.910608
0.925938
0.941195
0.956371
0.971454
0.986435
1.0013
1.01604
1.03065
1.0451
1.0594
1.07351
1.08744
1.10116
1.11467
1.12793
1.14095
1.1537
1.16617
1.17833
1.19018
1.20169
1.21285
1.22363
1.23403
1.24402
1.25359
1.26271
1.27137
1.27956
1.28726
1.29444
1.30111
1.30724
1.31281
1.31783
1.32227
1.32613
1.32941
1.33208
1.33416
1.33562
1.33649
1.33674
1.33639
1.33544
1.33389
1.33174
1.32901
1.3257
1.32182
1.31737
1.31236
1.3068
1.30069
1.29403
1.28683
1.27913
1.27097
1.26157
1.25023
0.0780225
0.067104
0.0580678
0.0502667
0.0429247
0.0360756
0.0297647
0.0239811
0.0187145
0.0139602
0.00971448
0.00597379
0.00273515
-4.16282e-06
-0.0022468
-0.00399547
-0.00525305
-0.00602273
-0.006308
-0.00611278
-0.00544136
-0.0042985
-0.00268938
-0.00061966
0.00190458
0.00487685
0.00829026
0.0121376
0.0164112
0.0211031
0.0262054
0.0317094
0.0376066
0.0438881
0.0505449
0.0575679
0.0649479
0.0726756
0.0807416
0.0891365
0.0978508
0.106875
0.116201
0.125818
0.135717
0.145889
0.156326
0.167018
0.177957
0.189133
0.200539
0.212167
0.224008
0.236054
0.248297
0.260731
0.273347
0.286139
0.2991
0.312222
0.3255
0.338927
0.352496
0.366202
0.38004
0.394003
0.408085
0.422283
0.43659
0.451001
0.465512
0.480118
0.494814
0.509596
0.524459
0.539399
0.554412
0.569492
0.584637
0.599841
0.6151
0.63041
0.645767
0.661166
0.676603
0.692073
0.707571
0.723093
0.738634
0.754188
0.76975
0.785315
0.800876
0.816428
0.831964
0.847477
0.862961
0.878409
0.893812
0.909162
0.924451
0.939671
0.954811
0.969863
0.984815
0.999658
1.01438
1.02897
1.04341
1.0577
1.07181
1.08574
1.09947
1.11299
1.12628
1.13932
1.1521
1.16461
1.17682
1.18872
1.20029
1.21151
1.22237
1.23284
1.24291
1.25257
1.26178
1.27055
1.27884
1.28663
1.29393
1.3007
1.30694
1.31262
1.31775
1.32229
1.32625
1.32962
1.33238
1.33453
1.33607
1.33698
1.33727
1.33694
1.33599
1.33442
1.33223
1.32942
1.32601
1.32199
1.31738
1.31217
1.30637
1.29998
1.29301
1.28544
1.27734
1.26875
1.25882
1.24685
0.0805558
0.0690491
0.0595352
0.0513336
0.0436264
0.0364491
0.0298489
0.0238131
0.0183296
0.0133916
0.00899307
0.0051284
0.00179225
-0.00102042
-0.00331454
-0.00509503
-0.00636694
-0.00713551
-0.00740618
-0.00718468
-0.00647703
-0.00528957
-0.00362898
-0.00150227
0.00108324
0.00411995
0.00759995
0.0115151
0.015857
0.0206171
0.0257865
0.0313564
0.0373175
0.0436607
0.0503767
0.057456
0.0648892
0.0726668
0.0807793
0.0892172
0.0979711
0.107032
0.116389
0.126035
0.135959
0.146154
0.156609
0.167316
0.178266
0.189451
0.200863
0.212492
0.224333
0.236375
0.248613
0.261038
0.273643
0.286421
0.299366
0.31247
0.325728
0.339132
0.352677
0.366357
0.380166
0.394099
0.40815
0.422314
0.436586
0.450961
0.465434
0.480001
0.494657
0.509397
0.524217
0.539113
0.55408
0.569115
0.584212
0.599368
0.614579
0.62984
0.645148
0.660497
0.675883
0.691303
0.70675
0.722222
0.737712
0.753216
0.768728
0.784244
0.799757
0.815262
0.830753
0.846222
0.861664
0.87707
0.892435
0.907749
0.923006
0.938195
0.953308
0.968336
0.983269
0.998096
1.01281
1.02739
1.04183
1.05612
1.07024
1.08419
1.09794
1.11148
1.12481
1.13789
1.15072
1.16328
1.17555
1.18751
1.19916
1.21046
1.2214
1.23197
1.24214
1.2519
1.26122
1.2701
1.2785
1.28642
1.29384
1.30073
1.30709
1.3129
1.31814
1.3228
1.32688
1.33034
1.3332
1.33543
1.33704
1.33801
1.33835
1.33804
1.33709
1.3355
1.33327
1.33039
1.32688
1.32273
1.31795
1.31254
1.3065
1.29984
1.29255
1.28463
1.27614
1.26712
1.25669
1.2441
0.0824438
0.0703687
0.0603919
0.0518006
0.0437369
0.0362384
0.029354
0.0230698
0.0173719
0.0122517
0.0077015
0.00371346
0.000280207
-0.00260541
-0.00495045
-0.00676192
-0.00804691
-0.00881261
-0.00906633
-0.00881559
-0.00806808
-0.00683174
-0.00511472
-0.00292537
-0.000272273
0.00283582
0.00638999
0.0103811
0.0148
0.0196374
0.0248837
0.0305294
0.0365649
0.0429805
0.0497665
0.0569133
0.064411
0.0722499
0.0804205
0.0889131
0.0977181
0.106826