/*--------------------------------*- C++ -*----------------------------------*\
  =========                 |
  \\      /  F ield         | OpenFOAM: The Open Source CFD Toolbox
   \\    /   O peration     | Website:  https://openfoam.org
    \\  /    A nd           | Version:  7
     \\/     M anipulation  |
\*---------------------------------------------------------------------------*/
FoamFile
{
    version     2.0;
    format      ascii;
    class       surfaceScalarField;
    location    "0.1875";
    object      phi;
}
// * * * * * * * * * * * * * * * * * * * * * * * * * * * * * * * * * * * * * //

dimensions      [0 3 -1 0 0 0 0];

internalField   nonuniform List<scalar> 
25360
(
1.14337e-10
-1.14262e-10
3.59556e-10
-2.45177e-10
6.04095e-10
-2.44552e-10
7.64907e-10
-1.60803e-10
7.97833e-10
-3.29374e-11
6.81084e-10
1.16728e-10
4.06061e-10
2.75035e-10
-2.79395e-11
4.34001e-10
-6.16771e-10
5.88826e-10
-1.3534e-09
7.3663e-10
-2.22907e-09
8.75677e-10
-3.23402e-09
1.00495e-09
-4.35795e-09
1.12392e-09
-5.59034e-09
1.23237e-09
-6.92065e-09
1.33031e-09
-8.33852e-09
1.41789e-09
-9.83387e-09
1.49535e-09
-1.13969e-08
1.56303e-09
-1.30183e-08
1.62134e-09
-1.4689e-08
1.67069e-09
-1.64005e-08
1.71153e-09
-1.81448e-08
1.74432e-09
-1.99143e-08
1.76953e-09
-2.1702e-08
1.78765e-09
-2.35011e-08
1.79914e-09
-2.53056e-08
1.80448e-09
-2.71097e-08
1.80413e-09
-2.89083e-08
1.79853e-09
-3.06964e-08
1.78812e-09
-3.24697e-08
1.77333e-09
-3.42243e-08
1.75456e-09
-3.59565e-08
1.73221e-09
-3.76631e-08
1.70664e-09
-3.93413e-08
1.67822e-09
-4.09886e-08
1.64729e-09
-4.26028e-08
1.61415e-09
-4.41819e-08
1.57913e-09
-4.57244e-08
1.54249e-09
-4.72289e-08
1.5045e-09
-4.86943e-08
1.46541e-09
-5.01198e-08
1.42546e-09
-5.15046e-08
1.38484e-09
-5.28484e-08
1.34377e-09
-5.41508e-08
1.3024e-09
-5.54117e-08
1.26092e-09
-5.66311e-08
1.21946e-09
-5.78093e-08
1.17816e-09
-5.89464e-08
1.13715e-09
-6.0043e-08
1.09651e-09
-6.10993e-08
1.05636e-09
-6.21161e-08
1.01676e-09
-6.30939e-08
9.77788e-10
-6.40334e-08
9.39502e-10
-6.49353e-08
9.01951e-10
-6.58005e-08
8.65172e-10
-6.66297e-08
8.29195e-10
-6.74237e-08
7.94039e-10
-6.81834e-08
7.59716e-10
-6.89097e-08
7.26233e-10
-6.96033e-08
6.93589e-10
-7.0265e-08
6.61775e-10
-7.08958e-08
6.30773e-10
-7.14963e-08
6.00562e-10
-7.20675e-08
5.71119e-10
-7.26099e-08
5.42414e-10
-7.31243e-08
5.14411e-10
-7.36114e-08
4.87069e-10
-7.40717e-08
4.60344e-10
-7.45059e-08
4.3419e-10
-7.49145e-08
4.08556e-10
-7.52978e-08
3.83389e-10
-7.56565e-08
3.58632e-10
-7.59907e-08
3.34225e-10
-7.63008e-08
3.10106e-10
-7.6587e-08
2.86211e-10
-7.68495e-08
2.62477e-10
-7.70883e-08
2.38836e-10
-7.73036e-08
2.15217e-10
-7.74951e-08
1.91548e-10
-7.76629e-08
1.67757e-10
-7.78066e-08
1.43773e-10
-7.79262e-08
1.19524e-10
-7.80211e-08
9.49357e-11
-7.8091e-08
6.99337e-11
-7.81355e-08
4.44418e-11
-7.81539e-08
1.83851e-11
-7.81455e-08
-8.30973e-12
-7.81098e-08
-3.57146e-11
-7.80459e-08
-6.39008e-11
-7.7953e-08
-9.29395e-11
-7.78301e-08
-1.229e-10
-7.76762e-08
-1.53851e-10
-7.74904e-08
-1.85854e-10
-7.72714e-08
-2.18971e-10
-7.70181e-08
-2.53259e-10
-7.67294e-08
-2.88771e-10
-7.64038e-08
-3.25557e-10
-7.60402e-08
-3.6366e-10
-7.5637e-08
-4.03119e-10
-7.51931e-08
-4.43966e-10
-7.47069e-08
-4.86225e-10
-7.41769e-08
-5.29911e-10
-7.36019e-08
-5.75034e-10
-7.29803e-08
-6.21591e-10
-7.23108e-08
-6.6957e-10
-7.15918e-08
-7.18951e-10
-7.08221e-08
-7.69697e-10
-7.00003e-08
-8.21763e-10
-6.91253e-08
-8.75086e-10
-6.81957e-08
-9.29592e-10
-6.72105e-08
-9.85189e-10
-6.61687e-08
-1.04177e-09
-6.50695e-08
-1.09921e-09
-6.39121e-08
-1.15738e-09
-6.2696e-08
-1.2161e-09
-6.14208e-08
-1.2752e-09
-6.00863e-08
-1.33448e-09
-5.86926e-08
-1.39372e-09
-5.72399e-08
-1.45268e-09
-5.57288e-08
-1.5111e-09
-5.41601e-08
-1.5687e-09
-5.2535e-08
-1.62516e-09
-5.08548e-08
-1.68017e-09
-4.91214e-08
-1.73338e-09
-4.7337e-08
-1.78442e-09
-4.55041e-08
-1.8329e-09
-4.36257e-08
-1.87841e-09
-4.17052e-08
-1.92054e-09
-3.97464e-08
-1.95882e-09
-3.77535e-08
-1.99282e-09
-3.57315e-08
-2.02205e-09
-3.36855e-08
-2.04602e-09
-3.16212e-08
-2.06424e-09
-2.9545e-08
-2.07621e-09
-2.74636e-08
-2.08141e-09
-2.53843e-08
-2.07932e-09
-2.33149e-08
-2.06944e-09
-2.12636e-08
-2.05124e-09
-1.92394e-08
-2.02423e-09
-1.72515e-08
-1.98791e-09
-1.53097e-08
-1.94179e-09
-1.34243e-08
-1.88542e-09
-1.16059e-08
-1.81837e-09
-9.86567e-09
-1.74023e-09
-8.215e-09
-1.65067e-09
-6.6656e-09
-1.5494e-09
-5.22936e-09
-1.43623e-09
-3.91829e-09
-1.31107e-09
-2.7443e-09
-1.174e-09
-1.71899e-09
-1.02531e-09
-8.53332e-10
-8.65656e-10
-1.57157e-10
-6.96173e-10
3.6162e-10
-5.18778e-10
6.98248e-10
-3.36631e-10
8.53224e-10
-1.54973e-10
8.35776e-10
1.74502e-11
6.6971e-10
1.66061e-10
4.03767e-10
2.65934e-10
1.30733e-10
2.73031e-10
1.30733e-10
2.45414e-10
-3.59633e-10
6.33848e-10
-6.33657e-10
9.49788e-10
-5.60446e-10
1.04647e-09
-2.57455e-10
8.28083e-10
1.8546e-10
2.38167e-10
7.06658e-10
-7.51644e-10
1.26484e-09
-2.15038e-09
1.83271e-09
-3.9539e-09
2.39233e-09
-6.14921e-09
2.93196e-09
-8.71747e-09
3.44394e-09
-1.1636e-08
3.92346e-09
-1.48797e-08
4.36759e-09
-1.84221e-08
4.77477e-09
-2.22361e-08
5.14437e-09
-2.62947e-08
5.47646e-09
-3.05709e-08
5.77157e-09
-3.50385e-08
6.03064e-09
-3.9672e-08
6.25485e-09
-4.44469e-08
6.44559e-09
-4.93397e-08
6.60435e-09
-5.43282e-08
6.73275e-09
-5.93911e-08
6.83245e-09
-6.45086e-08
6.90516e-09
-6.96621e-08
6.95259e-09
-7.4834e-08
6.97646e-09
-8.00084e-08
6.97845e-09
-8.51701e-08
6.96025e-09
-9.03054e-08
6.92347e-09
-9.54018e-08
6.86971e-09
-1.00448e-07
6.8005e-09
-1.05433e-07
6.71731e-09
-1.10348e-07
6.62156e-09
-1.15184e-07
6.51462e-09
-1.19935e-07
6.39776e-09
-1.24593e-07
6.27222e-09
-1.29153e-07
6.13915e-09
-1.3361e-07
5.99964e-09
-1.3796e-07
5.8547e-09
-1.422e-07
5.70529e-09
-1.46327e-07
5.5523e-09
-1.50339e-07
5.39656e-09
-1.54234e-07
5.23881e-09
-1.58011e-07
5.07975e-09
-1.6167e-07
4.92003e-09
-1.65211e-07
4.76021e-09
-1.68633e-07
4.60083e-09
-1.71939e-07
4.44234e-09
-1.75127e-07
4.28517e-09
-1.78201e-07
4.12968e-09
-1.8116e-07
3.97619e-09
-1.84007e-07
3.82498e-09
-1.86744e-07
3.67629e-09
-1.89372e-07
3.5303e-09
-1.91894e-07
3.38717e-09
-1.94312e-07
3.24702e-09
-1.96628e-07
3.10995e-09
-1.98844e-07
2.976e-09
-2.00963e-07
2.8452e-09
-2.02987e-07
2.71755e-09
-2.04919e-07
2.59302e-09
-2.06759e-07
2.47156e-09
-2.08512e-07
2.3531e-09
-2.10178e-07
2.23754e-09
-2.11761e-07
2.12477e-09
-2.13261e-07
2.01465e-09
-2.14681e-07
1.90704e-09
-2.16022e-07
1.80177e-09
-2.17287e-07
1.69866e-09
-2.18476e-07
1.59752e-09
-2.19591e-07
1.49815e-09
-2.20632e-07
1.40033e-09
-2.21602e-07
1.30383e-09
-2.225e-07
1.20842e-09
-2.23328e-07
1.11386e-09
-2.24085e-07
1.01989e-09
-2.24773e-07
9.26257e-10
-2.2539e-07
8.32689e-10
-2.25938e-07
7.38922e-10
-2.26414e-07
6.4468e-10
-2.2682e-07
5.49687e-10
-2.27154e-07
4.53661e-10
-2.27416e-07
3.56317e-10
-2.27603e-07
2.57373e-10
-2.27715e-07
1.56544e-10
-2.27751e-07
5.35471e-11
-2.27707e-07
-5.18974e-11
-2.27583e-07
-1.60068e-10
-2.27375e-07
-2.71237e-10
-2.27083e-07
-3.85673e-10
-2.26702e-07
-5.03634e-10
-2.2623e-07
-6.25373e-10
-2.25665e-07
-7.51129e-10
-2.25003e-07
-8.81134e-10
-2.24241e-07
-1.0156e-09
-2.23375e-07
-1.15473e-09
-2.22401e-07
-1.2987e-09
-2.21317e-07
-1.44767e-09
-2.20119e-07
-1.60178e-09
-2.18802e-07
-1.76115e-09
-2.17362e-07
-1.92585e-09
-2.15796e-07
-2.09594e-09
-2.141e-07
-2.27144e-09
-2.12269e-07
-2.45233e-09
-2.103e-07
-2.63857e-09
-2.08189e-07
-2.83004e-09
-2.05932e-07
-3.02661e-09
-2.03525e-07
-3.22808e-09
-2.00966e-07
-3.43422e-09
-1.98251e-07
-3.6447e-09
-1.95377e-07
-3.85918e-09
-1.92342e-07
-4.07724e-09
-1.89143e-07
-4.29838e-09
-1.85778e-07
-4.52205e-09
-1.82246e-07
-4.74763e-09
-1.78547e-07
-4.97442e-09
-1.7468e-07
-5.20165e-09
-1.70645e-07
-5.42846e-09
-1.66444e-07
-5.65393e-09
-1.62078e-07
-5.87705e-09
-1.5755e-07
-6.09672e-09
-1.52863e-07
-6.31179e-09
-1.48023e-07
-6.52101e-09
-1.43033e-07
-6.72304e-09
-1.37901e-07
-6.91648e-09
-1.32634e-07
-7.09986e-09
-1.27241e-07
-7.27162e-09
-1.21731e-07
-7.43015e-09
-1.16116e-07
-7.57377e-09
-1.10408e-07
-7.70075e-09
-1.04621e-07
-7.8093e-09
-9.87693e-08
-7.89759e-09
-9.28698e-08
-7.96375e-09
-8.69401e-08
-8.00591e-09
-8.09994e-08
-8.02216e-09
-7.50681e-08
-8.01058e-09
-6.91682e-08
-7.9693e-09
-6.33231e-08
-7.89643e-09
-5.75571e-08
-7.79015e-09
-5.18964e-08
-7.64868e-09
-4.63678e-08
-7.47033e-09
-4.09997e-08
-7.25353e-09
-3.58212e-08
-6.99684e-09
-3.08624e-08
-6.69901e-09
-2.61541e-08
-6.35902e-09
-2.17274e-08
-5.97614e-09
-1.76135e-08
-5.5501e-09
-1.38435e-08
-5.08111e-09
-1.04473e-08
-4.57017e-09
-7.45333e-09
-4.01926e-09
-4.88722e-09
-3.43178e-09
-2.77018e-09
-2.81321e-09
-1.11692e-09
-2.17202e-09
6.76385e-11
-1.52118e-09
7.9313e-10
-8.8046e-10
1.0906e-09
-2.80019e-10
1.02242e-09
2.34236e-10
6.95154e-10
5.93206e-10
2.73062e-10
6.95131e-10
4.03795e-10
2.45761e-10
-6.05405e-10
5.63355e-10
-9.51215e-10
6.97634e-10
-6.94711e-10
4.74628e-10
-3.44677e-11
-2.25299e-10
8.85398e-10
-1.47804e-09
1.9594e-09
-3.32546e-09
3.11225e-09
-5.78409e-09
4.29133e-09
-8.85193e-09
5.46018e-09
-1.25137e-08
6.59369e-09
-1.67445e-08
7.67479e-09
-2.15132e-08
8.69213e-09
-2.6784e-08
9.63842e-09
-3.25186e-08
1.05093e-08
-3.86769e-08
1.13027e-08
-4.52183e-08
1.20179e-08
-5.21022e-08
1.26555e-08
-5.92886e-08
1.3217e-08
-6.67382e-08
1.37045e-08
-7.44132e-08
1.41206e-08
-8.22771e-08
1.44683e-08
-9.02951e-08
1.47507e-08
-9.84339e-08
1.49713e-08
-1.06662e-07
1.51336e-08
-1.14951e-07
1.52412e-08
-1.23272e-07
1.52975e-08
-1.316e-07
1.53063e-08
-1.39911e-07
1.5271e-08
-1.48182e-07
1.51951e-08
-1.56395e-07
1.5082e-08
-1.64529e-07
1.4935e-08
-1.72569e-07
1.47573e-08
-1.80499e-07
1.45518e-08
-1.88306e-07
1.43216e-08
-1.95978e-07
1.40695e-08
-2.03504e-07
1.3798e-08
-2.10874e-07
1.35098e-08
-2.18082e-07
1.32071e-08
-2.25119e-07
1.28923e-08
-2.31982e-07
1.25673e-08
-2.38663e-07
1.22342e-08
-2.45162e-07
1.18947e-08
-2.51473e-07
1.15505e-08
-2.57597e-07
1.12031e-08
-2.63531e-07
1.0854e-08
-2.69275e-07
1.05044e-08
-2.74829e-07
1.01554e-08
-2.80195e-07
9.80816e-09
-2.85374e-07
9.46351e-09
-2.90366e-07
9.1223e-09
-2.95175e-07
8.78524e-09
-2.99803e-07
8.45295e-09
-3.04253e-07
8.12595e-09
-3.08527e-07
7.80468e-09
-3.1263e-07
7.48949e-09
-3.16563e-07
7.18065e-09
-3.20332e-07
6.87838e-09
-3.23938e-07
6.58279e-09
-3.27387e-07
6.29397e-09
-3.30682e-07
6.0119e-09
-3.33825e-07
5.73655e-09
-3.36821e-07
5.4678e-09
-3.39674e-07
5.20552e-09
-3.42386e-07
4.94949e-09
-3.4496e-07
4.69947e-09
-3.47401e-07
4.45518e-09
-3.4971e-07
4.2163e-09
-3.51891e-07
3.98248e-09
-3.53946e-07
3.75332e-09
-3.55876e-07
3.52843e-09
-3.57686e-07
3.30734e-09
-3.59375e-07
3.0896e-09
-3.60946e-07
2.87471e-09
-3.624e-07
2.66216e-09
-3.63737e-07
2.45143e-09
-3.64959e-07
2.24196e-09
-3.66066e-07
2.03319e-09
-3.67058e-07
1.82456e-09
-3.67935e-07
1.61547e-09
-3.68695e-07
1.40532e-09
-3.69339e-07
1.19352e-09
-3.69865e-07
9.7945e-10
-3.70271e-07
7.62494e-10
-3.70556e-07
5.4204e-10
-3.70717e-07
3.17471e-10
-3.70751e-07
8.81753e-11
-3.70657e-07
-1.46454e-10
-3.7043e-07
-3.87017e-10
-3.70067e-07
-6.34104e-10
-3.69564e-07
-8.88293e-10
-3.68918e-07
-1.15014e-09
-3.68123e-07
-1.4202e-09
-3.67175e-07
-1.69897e-09
-3.66069e-07
-1.98695e-09
-3.648e-07
-2.2846e-09
-3.63363e-07
-2.59234e-09
-3.61751e-07
-2.91055e-09
-3.59959e-07
-3.23958e-09
-3.57981e-07
-3.5797e-09
-3.55811e-07
-3.93115e-09
-3.53443e-07
-4.29409e-09
-3.5087e-07
-4.66864e-09
-3.48087e-07
-5.05482e-09
-3.45086e-07
-5.45257e-09
-3.41863e-07
-5.86176e-09
-3.38411e-07
-6.28216e-09
-3.34724e-07
-6.71343e-09
-3.30797e-07
-7.15514e-09
-3.26625e-07
-7.60673e-09
-3.22202e-07
-8.06753e-09
-3.17524e-07
-8.53674e-09
-3.12588e-07
-9.01341e-09
-3.0739e-07
-9.49648e-09
-3.01927e-07
-9.98472e-09
-2.96198e-07
-1.04768e-08
-2.90202e-07
-1.0971e-08
-2.83937e-07
-1.14659e-08
-2.77406e-07
-1.19595e-08
-2.70611e-07
-1.24497e-08
-2.63553e-07
-1.29344e-08
-2.56239e-07
-1.34112e-08
-2.48673e-07
-1.38775e-08
-2.40863e-07
-1.43307e-08
-2.32818e-07
-1.47679e-08
-2.24549e-07
-1.5186e-08
-2.16067e-07
-1.55818e-08
-2.07387e-07
-1.59519e-08
-1.98524e-07
-1.6293e-08
-1.89496e-07
-1.66012e-08
-1.80324e-07
-1.68731e-08
-1.71029e-07
-1.71046e-08
-1.61635e-07
-1.72919e-08
-1.52167e-07
-1.74309e-08
-1.42656e-07
-1.75178e-08
-1.33129e-07
-1.75483e-08
-1.23621e-07
-1.75185e-08
-1.14166e-07
-1.74245e-08
-1.04801e-07
-1.72622e-08
-9.55628e-08
-1.70279e-08
-8.64935e-08
-1.67179e-08
-7.7635e-08
-1.63289e-08
-6.9031e-08
-1.58576e-08
-6.07266e-08
-1.53012e-08
-5.27681e-08
-1.46576e-08
-4.52023e-08
-1.39248e-08
-3.80764e-08
-1.3102e-08
-3.14373e-08
-1.21892e-08
-2.53308e-08
-1.11876e-08
-1.98007e-08
-1.01003e-08
-1.48874e-08
-8.93252e-09
-1.06264e-08
-7.69284e-09
-7.0455e-09
-6.3941e-09
-4.16217e-09
-5.05535e-09
-1.97896e-09
-3.7044e-09
-4.77823e-10
-2.3816e-09
3.87434e-10
-1.14527e-09
7.00934e-10
-7.92604e-11
5.95912e-10
6.98219e-10
2.66838e-10
1.0242e-09
6.70629e-10
1.63731e-10
-7.69122e-10
2.64695e-10
-1.05215e-09
4.41535e-11
-4.74195e-10
-6.78178e-10
6.87868e-10
-2.02905e-09
2.23628e-09
-4.09169e-09
4.02202e-09
-6.91416e-09
5.93471e-09
-1.0517e-08
7.89415e-09
-1.48994e-08
9.84263e-09
-2.00447e-08
1.1739e-08
-2.5924e-08
1.35541e-08
-3.25001e-08
1.52682e-08
-3.97294e-08
1.68677e-08
-4.75643e-08
1.83443e-08
-5.59547e-08
1.96931e-08
-6.48492e-08
2.09123e-08
-7.41958e-08
2.20021e-08
-8.3943e-08
2.29642e-08
-9.40401e-08
2.38016e-08
-1.04438e-07
2.45182e-08
-1.15088e-07
2.51187e-08
-1.25946e-07
2.56082e-08
-1.36966e-07
2.59921e-08
-1.48109e-07
2.62763e-08
-1.59334e-07
2.64665e-08
-1.70606e-07
2.65688e-08
-1.81889e-07
2.65892e-08
-1.93151e-07
2.65335e-08
-2.04364e-07
2.64077e-08
-2.15499e-07
2.62174e-08
-2.26532e-07
2.59683e-08
-2.37441e-07
2.56658e-08
-2.48204e-07
2.53151e-08
-2.58804e-07
2.49212e-08
-2.69223e-07
2.44889e-08
-2.79448e-07
2.40228e-08
-2.89466e-07
2.35272e-08
-2.99265e-07
2.30062e-08
-3.08836e-07
2.24636e-08
-3.18172e-07
2.19031e-08
-3.27265e-07
2.13279e-08
-3.36112e-07
2.07413e-08
-3.44708e-07
2.0146e-08
-3.53049e-07
1.95449e-08
-3.61136e-07
1.89402e-08
-3.68965e-07
1.83343e-08
-3.76539e-07
1.77291e-08
-3.83858e-07
1.71265e-08
-3.90922e-07
1.65281e-08
-3.97735e-07
1.59352e-08
-4.04299e-07
1.53493e-08
-4.10617e-07
1.47712e-08
-4.16693e-07
1.42021e-08
-4.22531e-07
1.36425e-08
-4.28135e-07
1.30933e-08
-4.33509e-07
1.25548e-08
-4.38658e-07
1.20275e-08
-4.43587e-07
1.15115e-08
-4.483e-07
1.10071e-08
-4.52802e-07
1.05141e-08
-4.57099e-07
1.00327e-08
-4.61193e-07
9.56249e-09
-4.65091e-07
9.10335e-09
-4.68797e-07
8.65491e-09
-4.72314e-07
8.21676e-09
-4.75647e-07
7.78842e-09
-4.788e-07
7.36935e-09
-4.81777e-07
6.95893e-09
-4.8458e-07
6.55652e-09
-4.87213e-07
6.16139e-09
-4.89678e-07
5.7728e-09
-4.91979e-07
5.38992e-09
-4.94116e-07
5.01192e-09
-4.96092e-07
4.63793e-09
-4.97907e-07
4.26702e-09
-4.99563e-07
3.89827e-09
-5.01061e-07
3.53071e-09
-5.024e-07
3.16333e-09
-5.03579e-07
2.79513e-09
-5.04599e-07
2.42508e-09
-5.05458e-07
2.05215e-09
-5.06154e-07
1.67528e-09
-5.06685e-07
1.29343e-09
-5.07048e-07
9.05523e-10
-5.07241e-07
5.10512e-10
-5.0726e-07
1.07341e-10
-5.07102e-07
-3.05035e-10
-5.06761e-07
-7.27644e-10
-5.06234e-07
-1.16149e-09
-5.05514e-07
-1.60757e-09
-5.04598e-07
-2.06683e-09
-5.03478e-07
-2.54021e-09
-5.02148e-07
-3.02856e-09
-5.00602e-07
-3.53275e-09
-4.98833e-07
-4.05353e-09
-4.96834e-07
-4.59162e-09
-4.94597e-07
-5.14767e-09
-4.92114e-07
-5.72224e-09
-4.89378e-07
-6.31581e-09
-4.86381e-07
-6.92876e-09
-4.83113e-07
-7.56136e-09
-4.79568e-07
-8.21376e-09
-4.75737e-07
-8.88599e-09
-4.71612e-07
-9.57794e-09
-4.67184e-07
-1.02893e-08
-4.62446e-07
-1.10198e-08
-4.57391e-07
-1.17686e-08
-4.52011e-07
-1.25352e-08
-4.463e-07
-1.33184e-08
-4.4025e-07
-1.4117e-08
-4.33857e-07
-1.49298e-08
-4.27116e-07
-1.5755e-08
-4.20021e-07
-1.65907e-08
-4.12571e-07
-1.74349e-08
-4.04763e-07
-1.82851e-08
-3.96595e-07
-1.91386e-08
-3.88069e-07
-1.99926e-08
-3.79184e-07
-2.08438e-08
-3.69945e-07
-2.16887e-08
-3.60356e-07
-2.25235e-08
-3.50423e-07
-2.33441e-08
-3.40154e-07
-2.41461e-08
-3.2956e-07
-2.49249e-08
-3.18653e-07
-2.56754e-08
-3.07446e-07
-2.63925e-08
-2.95957e-07
-2.70708e-08
-2.84205e-07
-2.77043e-08
-2.72211e-07
-2.82872e-08
-2.59999e-07
-2.88133e-08
-2.47595e-07
-2.92763e-08
-2.3503e-07
-2.96695e-08
-2.22336e-07
-2.99863e-08
-2.09547e-07
-3.02201e-08
-1.96701e-07
-3.03639e-08
-1.83838e-07
-3.04109e-08
-1.71002e-07
-3.03545e-08
-1.58239e-07
-3.01878e-08
-1.45597e-07
-2.99045e-08
-1.33126e-07
-2.94981e-08
-1.20881e-07
-2.89628e-08
-1.08917e-07
-2.8293e-08
-9.7291e-08
-2.74838e-08
-8.60614e-08
-2.65308e-08
-7.52883e-08
-2.54307e-08
-6.50321e-08
-2.4181e-08
-5.53531e-08
-2.2781e-08
-4.63108e-08
-2.12315e-08
-3.79627e-08
-1.95357e-08
-3.03631e-08
-1.76998e-08
-2.35615e-08
-1.57342e-08
-1.76001e-08
-1.36543e-08
-1.25113e-08
-1.14828e-08
-8.3143e-09
-9.25238e-09
-5.01004e-09
-7.00865e-09
-2.57596e-09
-4.81567e-09
-9.58804e-10
-2.76243e-09
-6.61741e-11
-9.71888e-10
2.4284e-10
3.89215e-10
1.68953e-10
1.09808e-09
8.39574e-10
3.77288e-11
-8.06856e-10
-1.74189e-10
-8.40222e-10
-8.70547e-10
2.22173e-10
-2.22136e-09
2.0387e-09
-4.34842e-09
4.36332e-09
-7.33322e-09
7.0068e-09
-1.12237e-08
9.82519e-09
-1.60404e-08
1.27109e-08
-2.17818e-08
1.55841e-08
-2.84292e-08
1.83863e-08
-3.59503e-08
2.10753e-08
-4.43029e-08
2.36208e-08
-5.34374e-08
2.60022e-08
-6.32988e-08
2.82057e-08
-7.38291e-08
3.02233e-08
-8.49678e-08
3.2051e-08
-9.66537e-08
3.36881e-08
-1.08826e-07
3.51363e-08
-1.21424e-07
3.63994e-08
-1.34388e-07
3.74826e-08
-1.47662e-07
3.83923e-08
-1.61189e-07
3.91356e-08
-1.74917e-07
3.97205e-08
-1.88796e-07
4.01551e-08
-2.02778e-07
4.04481e-08
-2.16817e-07
4.06083e-08
-2.30873e-07
4.06444e-08
-2.44904e-07
4.05652e-08
-2.58876e-07
4.03795e-08
-2.72754e-07
4.00957e-08
-2.86508e-07
3.97223e-08
-3.0011e-07
3.92674e-08
-3.13534e-07
3.87388e-08
-3.26756e-07
3.8144e-08
-3.39758e-07
3.74904e-08
-3.5252e-07
3.67848e-08
-3.65026e-07
3.60337e-08
-3.77263e-07
3.52434e-08
-3.89219e-07
3.44196e-08
-4.00884e-07
3.35679e-08
-4.1225e-07
3.26934e-08
-4.23309e-07
3.18008e-08
-4.34058e-07
3.08946e-08
-4.44492e-07
2.99787e-08
-4.54608e-07
2.9057e-08
-4.64407e-07
2.81328e-08
-4.73887e-07
2.72092e-08
-4.8305e-07
2.62891e-08
-4.91896e-07
2.53748e-08
-5.0043e-07
2.44686e-08
-5.08653e-07
2.35725e-08
-5.1657e-07
2.2688e-08
-5.24184e-07
2.18167e-08
-5.31501e-07
2.09597e-08
-5.38526e-07
2.0118e-08
-5.45264e-07
1.92924e-08
-5.5172e-07
1.84835e-08
-5.579e-07
1.76916e-08
-5.6381e-07
1.6917e-08
-5.69455e-07
1.61597e-08
-5.74842e-07
1.54197e-08
-5.79976e-07
1.46966e-08
-5.84863e-07
1.39902e-08
-5.89508e-07
1.32999e-08
-5.93916e-07
1.26251e-08
-5.98093e-07
1.19651e-08
-6.02043e-07
1.13191e-08
-6.0577e-07
1.06862e-08
-6.09279e-07
1.00653e-08
-6.12573e-07
9.45545e-09
-6.15656e-07
8.85542e-09
-6.1853e-07
8.26402e-09
-6.21198e-07
7.67998e-09
-6.23662e-07
7.10197e-09
-6.25924e-07
6.5286e-09
-6.27984e-07
5.95844e-09
-6.29843e-07
5.39004e-09
-6.31502e-07
4.82189e-09
-6.32959e-07
4.25246e-09
-6.34214e-07
3.68021e-09
-6.35265e-07
3.10354e-09
-6.36111e-07
2.52088e-09
-6.36748e-07
1.93062e-09
-6.37174e-07
1.33116e-09
-6.37384e-07
7.20907e-10
-6.37375e-07
9.82653e-11
-6.37142e-07
-5.38339e-10
-6.36679e-07
-1.19046e-09
-6.35981e-07
-1.85961e-09
-6.35041e-07
-2.54729e-09
-6.33853e-07
-3.25494e-09
-6.32409e-07
-3.98394e-09
-6.30702e-07
-4.73561e-09
-6.28724e-07
-5.5112e-09
-6.26466e-07
-6.31187e-09
-6.23919e-07
-7.13869e-09
-6.21074e-07
-7.9926e-09
-6.17921e-07
-8.87446e-09
-6.14452e-07
-9.78494e-09
-6.10656e-07
-1.07246e-08
-6.06524e-07
-1.16939e-08
-6.02045e-07
-1.26929e-08
-5.97209e-07
-1.37217e-08
-5.92007e-07
-1.47801e-08
-5.86429e-07
-1.58676e-08
-5.80465e-07
-1.69837e-08
-5.74106e-07
-1.81272e-08
-5.67344e-07
-1.92971e-08
-5.60171e-07
-2.04918e-08
-5.52578e-07
-2.17095e-08
-5.4456e-07
-2.2948e-08
-5.3611e-07
-2.42048e-08
-5.27224e-07
-2.54769e-08
-5.17898e-07
-2.67613e-08
-5.08129e-07
-2.80541e-08
-4.97916e-07
-2.93513e-08
-4.8726e-07
-3.06485e-08
-4.76163e-07
-3.19407e-08
-4.64629e-07
-3.32227e-08
-4.52664e-07
-3.44886e-08
-4.40276e-07
-3.57322e-08
-4.27475e-07
-3.69469e-08
-4.14274e-07
-3.81257e-08
-4.00689e-07
-3.9261e-08
-3.86737e-07
-4.03449e-08
-3.72438e-07
-4.13692e-08
-3.57817e-07
-4.23252e-08
-3.429e-07
-4.32039e-08
-3.27718e-07
-4.39961e-08
-3.12302e-07
-4.46921e-08
-2.96689e-07
-4.52822e-08
-2.80919e-07
-4.57565e-08
-2.65034e-07
-4.61047e-08
-2.49081e-07
-4.63169e-08
-2.3311e-07
-4.63828e-08
-2.17172e-07
-4.62924e-08
-2.01323e-07
-4.6036e-08
-1.85624e-07
-4.56039e-08
-1.70135e-07
-4.4987e-08
-1.54921e-07
-4.41767e-08
-1.40049e-07
-4.31652e-08
-1.25588e-07
-4.19454e-08
-1.11607e-07
-4.05116e-08
-9.81781e-08
-3.88593e-08
-8.53734e-08
-3.69858e-08
-7.32638e-08
-3.48907e-08
-6.19189e-08
-3.25764e-08
-5.14057e-08
-3.00488e-08
-4.1787e-08
-2.73186e-08
-3.3119e-08
-2.44021e-08
-2.54497e-08
-2.13236e-08
-1.88154e-08
-1.81172e-08
-1.32372e-08
-1.48305e-08
-8.7171e-09
-1.15288e-08
-5.23219e-09
-8.30058e-09
-2.72929e-09
-5.26533e-09
-1.11794e-09
-2.58324e-09
-2.63143e-10
-4.65567e-10
2.32373e-11
8.11704e-10
8.62811e-10
-1.10611e-10
-6.96266e-10
-6.93966e-10
-2.56848e-10
-1.9459e-09
1.47411e-09
-4.01422e-09
4.10699e-09
-7.00666e-09
7.35575e-09
-1.0996e-08
1.09961e-08
-1.60246e-08
1.48539e-08
-2.21093e-08
1.87956e-08
-2.92454e-08
2.27201e-08
-3.74108e-08
2.65517e-08
-4.65694e-08
3.02339e-08
-5.66745e-08
3.37259e-08
-6.76711e-08
3.69988e-08
-7.94983e-08
4.00329e-08
-9.20909e-08
4.2816e-08
-1.05382e-07
4.53416e-08
-1.19301e-07
4.76076e-08
-1.3378e-07
4.96154e-08
-1.4875e-07
5.13695e-08
-1.64144e-07
5.28762e-08
-1.79895e-07
5.41436e-08
-1.95941e-07
5.51812e-08
-2.12219e-07
5.59992e-08
-2.28673e-07
5.66087e-08
-2.45246e-07
5.70214e-08
-2.61887e-07
5.7249e-08
-2.78546e-07
5.73035e-08
-2.95178e-07
5.71969e-08
-3.1174e-07
5.69413e-08
-3.28192e-07
5.65483e-08
-3.44499e-07
5.60295e-08
-3.60628e-07
5.53961e-08
-3.76549e-07
5.46591e-08
-3.92233e-07
5.38289e-08
-4.07658e-07
5.29155e-08
-4.22802e-07
5.19285e-08
-4.37646e-07
5.08772e-08
-4.52172e-07
4.97702e-08
-4.66368e-07
4.86155e-08
-4.80221e-07
4.7421e-08
-4.93722e-07
4.61937e-08
-5.06861e-07
4.49404e-08
-5.19634e-07
4.36672e-08
-5.32035e-07
4.23799e-08
-5.44062e-07
4.10837e-08
-5.55712e-07
3.97834e-08
-5.66987e-07
3.84833e-08
-5.77885e-07
3.71875e-08
-5.88409e-07
3.58993e-08
-5.98563e-07
3.4622e-08
-6.08349e-07
3.33582e-08
-6.17771e-07
3.21104e-08
-6.26835e-07
3.08806e-08
-6.35546e-07
2.96705e-08
-6.43909e-07
2.84814e-08
-6.51932e-07
2.73146e-08
-6.59619e-07
2.61708e-08
-6.66978e-07
2.50507e-08
-6.74016e-07
2.39545e-08
-6.80738e-07
2.28824e-08
-6.87153e-07
2.18341e-08
-6.93266e-07
2.08095e-08
-6.99083e-07
1.98081e-08
-7.04613e-07
1.8829e-08
-7.09859e-07
1.78716e-08
-7.14829e-07
1.69347e-08
-7.19527e-07
1.60173e-08
-7.23959e-07
1.51182e-08
-7.28129e-07
1.42358e-08
-7.32042e-07
1.33687e-08
-7.35702e-07
1.25154e-08
-7.39112e-07
1.1674e-08
-7.42275e-07
1.08429e-08
-7.45194e-07
1.00202e-08
-7.47869e-07
9.20396e-09
-7.50303e-07
8.39215e-09
-7.52495e-07
7.58275e-09
-7.54447e-07
6.77366e-09
-7.56157e-07
5.96275e-09
-7.57625e-07
5.14783e-09
-7.58848e-07
4.32672e-09
-7.59825e-07
3.49718e-09
-7.60551e-07
2.657e-09
-7.61024e-07
1.80394e-09
-7.61239e-07
9.35759e-10
-7.61191e-07
5.02499e-11
-7.60874e-07
-8.54786e-10
-7.60283e-07
-1.78151e-09
-7.59411e-07
-2.73205e-09
-7.58249e-07
-3.70846e-09
-7.56792e-07
-4.71275e-09
-7.55029e-07
-5.74684e-09
-7.52952e-07
-6.81255e-09
-7.50551e-07
-7.91161e-09
-7.47818e-07
-9.04563e-09
-7.4474e-07
-1.02161e-08
-7.41309e-07
-1.14242e-08
-7.37512e-07
-1.26713e-08
-7.33339e-07
-1.39581e-08
-7.28778e-07
-1.52856e-08
-7.23817e-07
-1.66541e-08
-7.18447e-07
-1.80639e-08
-7.12653e-07
-1.9515e-08
-7.06426e-07
-2.10071e-08
-6.99754e-07
-2.25395e-08
-6.92627e-07
-2.41113e-08
-6.85033e-07
-2.57211e-08
-6.76963e-07
-2.73672e-08
-6.68407e-07
-2.90474e-08
-6.59357e-07
-3.07591e-08
-6.49806e-07
-3.24993e-08
-6.39747e-07
-3.42643e-08
-6.29173e-07
-3.60501e-08
-6.18082e-07
-3.78522e-08
-6.06471e-07
-3.96654e-08
-5.94339e-07
-4.14839e-08
-5.81685e-07
-4.33016e-08
-5.68515e-07
-4.51115e-08
-5.54831e-07
-4.69061e-08
-5.40642e-07
-4.86775e-08
-5.25958e-07
-5.04169e-08
-5.1079e-07
-5.2115e-08
-4.95153e-07
-5.3762e-08
-4.79067e-07
-5.53474e-08
-4.62552e-07
-5.68603e-08
-4.45632e-07
-5.82891e-08
-4.28335e-07
-5.96218e-08
-4.10693e-07
-6.08459e-08
-3.9274e-07
-6.19486e-08
-3.74516e-07
-6.29166e-08
-3.56062e-07
-6.37363e-08
-3.37425e-07
-6.4394e-08
-3.18653e-07
-6.48757e-08
-2.99803e-07
-6.51677e-08
-2.8093e-07
-6.52559e-08
-2.62095e-07
-6.51267e-08
-2.43365e-07
-6.47666e-08
-2.24806e-07
-6.41629e-08
-2.06489e-07
-6.3303e-08
-1.88491e-07
-6.21757e-08
-1.70885e-07
-6.07704e-08
-1.53752e-07
-5.90782e-08
-1.37172e-07
-5.70917e-08
-1.21226e-07
-5.48056e-08
-1.05995e-07
-5.22171e-08
-9.15585e-08
-4.93268e-08
-7.79958e-08
-4.6139e-08
-6.53816e-08
-4.26631e-08
-5.37853e-08
-3.89149e-08
-4.32695e-08
-3.49179e-08
-3.38873e-08
-3.07058e-08
-2.56791e-08
-2.63253e-08
-1.86699e-08
-2.18398e-08
-1.28647e-08
-1.7334e-08
-8.2449e-09
-1.29203e-08
-4.76344e-09
-8.74681e-09
-2.33964e-09
-5.00705e-09
-8.54559e-10
-1.95065e-09
-1.4584e-10
1.02993e-10
7.16976e-10
-2.6883e-10
-4.27427e-10
-1.25587e-09
7.30199e-10
-3.1118e-09
3.33003e-09
-5.95488e-09
6.95006e-09
-9.87251e-09
1.12734e-08
-1.49233e-08
1.6047e-08
-2.11398e-08
2.10703e-08
-2.85313e-08
2.61871e-08
-3.70877e-08
3.12765e-08
-4.67818e-08
3.62458e-08
-5.7573e-08
4.10251e-08
-6.94097e-08
4.55626e-08
-8.22317e-08
4.98208e-08
-9.59727e-08
5.37738e-08
-1.10561e-07
5.74048e-08
-1.25924e-07
6.07042e-08
-1.41985e-07
6.36684e-08
-1.58668e-07
6.62983e-08
-1.75897e-07
6.85986e-08
-1.93597e-07
7.05768e-08
-2.11697e-07
7.22428e-08
-2.30124e-07
7.36082e-08
-2.4881e-07
7.4686e-08
-2.67692e-07
7.54902e-08
-2.86706e-07
7.60355e-08
-3.05794e-07
7.63372e-08
-3.24901e-07
7.64107e-08
-3.43976e-07
7.62715e-08
-3.6297e-07
7.59352e-08
-3.81839e-07
7.54171e-08
-4.00541e-07
7.47322e-08
-4.1904e-07
7.38953e-08
-4.37302e-07
7.29206e-08
-4.55295e-07
7.18219e-08
-4.72992e-07
7.06125e-08
-4.90368e-07
6.93049e-08
-5.07402e-07
6.79112e-08
-5.24075e-07
6.64429e-08
-5.4037e-07
6.49108e-08
-5.56274e-07
6.3325e-08
-5.71776e-07
6.1695e-08
-5.86865e-07
6.00297e-08
-6.01535e-07
5.83373e-08
-6.15781e-07
5.66254e-08
-6.29598e-07
5.4901e-08
-6.42985e-07
5.31705e-08
-6.55941e-07
5.14396e-08
-6.68467e-07
4.97136e-08
-6.80565e-07
4.79973e-08
-6.92238e-07
4.62947e-08
-7.03489e-07
4.46095e-08
-7.14324e-07
4.2945e-08
-7.24747e-07
4.13038e-08
-7.34765e-07
3.96883e-08
-7.44384e-07
3.81004e-08
-7.53611e-07
3.65415e-08
-7.62453e-07
3.50129e-08
-7.70917e-07
3.35152e-08
-7.79012e-07
3.2049e-08
-7.86744e-07
3.06144e-08
-7.94121e-07
2.92112e-08
-8.01151e-07
2.78392e-08
-8.0784e-07
2.64976e-08
-8.14197e-07
2.51855e-08
-8.20227e-07
2.39019e-08
-8.25937e-07
2.26454e-08
-8.31335e-07
2.14146e-08
-8.36424e-07
2.02077e-08
-8.41212e-07
1.90231e-08
-8.45701e-07
1.78586e-08
-8.49898e-07
1.67122e-08
-8.53806e-07
1.55816e-08
-8.57427e-07
1.44646e-08
-8.60766e-07
1.33585e-08
-8.63823e-07
1.2261e-08
-8.666e-07
1.11693e-08
-8.69098e-07
1.00807e-08
-8.71317e-07
8.99253e-09
-8.73256e-07
7.9019e-09
-8.74914e-07
6.80594e-09
-8.76289e-07
5.70176e-09
-8.77378e-07
4.58642e-09
-8.78178e-07
3.45697e-09
-8.78685e-07
2.31046e-09
-8.78893e-07
1.14396e-09
-8.78797e-07
-4.54644e-11
-8.78391e-07
-1.2607e-09
-8.77668e-07
-2.50461e-09
-8.7662e-07
-3.77996e-09
-8.75239e-07
-5.08949e-09
-8.73516e-07
-6.43581e-09
-8.71442e-07
-7.82146e-09
-8.69005e-07
-9.24883e-09
-8.66197e-07
-1.07202e-08
-8.63005e-07
-1.22376e-08
-8.59418e-07
-1.3803e-08
-8.55424e-07
-1.54181e-08
-8.51011e-07
-1.70844e-08
-8.46166e-07
-1.88031e-08
-8.40876e-07
-2.05751e-08
-8.3513e-07
-2.2401e-08
-8.28912e-07
-2.42812e-08
-8.22211e-07
-2.62157e-08
-8.15015e-07
-2.82038e-08
-8.07309e-07
-3.02449e-08
-7.99083e-07
-3.23374e-08
-7.90325e-07
-3.44796e-08
-7.81023e-07
-3.66692e-08
-7.71167e-07
-3.89032e-08
-7.60748e-07
-4.11782e-08
-7.49757e-07
-4.349e-08
-7.38188e-07
-4.5834e-08
-7.26033e-07
-4.82047e-08
-7.13289e-07
-5.0596e-08
-6.99954e-07
-5.30011e-08
-6.86025e-07
-5.54124e-08
-6.71505e-07
-5.78216e-08
-6.56397e-07
-6.02197e-08
-6.40706e-07
-6.25967e-08
-6.24442e-07
-6.49419e-08
-6.07615e-07
-6.72439e-08
-5.90239e-07
-6.94905e-08
-5.72333e-07
-7.16687e-08
-5.53915e-07
-7.37647e-08
-5.35012e-07
-7.5764e-08
-5.15649e-07
-7.76514e-08
-4.9586e-07
-7.94112e-08
-4.75679e-07
-8.1027e-08
-4.55146e-07
-8.24818e-08
-4.34304e-07
-8.37583e-08
-4.13201e-07
-8.48388e-08
-3.9189e-07
-8.57054e-08
-3.70426e-07
-8.63398e-08
-3.4887e-07
-8.67239e-08
-3.27286e-07
-8.68398e-08
-3.05743e-07
-8.66696e-08
-2.84313e-07
-8.61962e-08
-2.63073e-07
-8.54029e-08
-2.42102e-07
-8.42741e-08
-2.21483e-07
-8.27952e-08
-2.013e-07
-8.09532e-08
-1.81641e-07
-7.87369e-08
-1.62595e-07
-7.61376e-08
-1.44252e-07
-7.31492e-08
-1.267e-07
-6.97691e-08
-1.10028e-07
-6.5999e-08
-9.43209e-08
-6.18458e-08
-7.96612e-08
-5.73228e-08
-6.61247e-08
-5.24514e-08
-5.37797e-08
-4.72628e-08
-4.26847e-08
-4.18009e-08
-3.28852e-08
-3.61248e-08
-2.44116e-08
-3.03134e-08
-1.72752e-08
-2.44704e-08
-1.14653e-08
-1.87302e-08
-6.94581e-09
-1.32663e-08
-3.65187e-09
-8.30097e-09
-1.48761e-09
-4.11492e-09
-3.24302e-10
-1.06031e-09
3.92678e-10
-4.2969e-10
2.26103e-12
-1.83505e-09
2.13553e-09
-4.32061e-09
5.81559e-09
-7.97147e-09
1.06009e-08
-1.28506e-08
1.61525e-08
-1.89986e-08
2.2195e-08
-2.64346e-08
2.85063e-08
-3.51578e-08
3.49103e-08
-4.51498e-08
4.12685e-08
-5.63771e-08
4.74731e-08
-6.87932e-08
5.34412e-08
-8.2341e-08
5.91104e-08
-9.69551e-08
6.44349e-08
-1.12564e-07
6.93823e-08
-1.2909e-07
7.3931e-08
-1.46454e-07
7.80685e-08
-1.64575e-07
8.17891e-08
-1.83369e-07
8.50931e-08
-2.02756e-07
8.79854e-08
-2.22654e-07
9.04747e-08
-2.42984e-07
9.25725e-08
-2.63669e-07
9.42927e-08
-2.84634e-07
9.56511e-08
-3.05808e-07
9.66648e-08
-3.27125e-07
9.73518e-08
-3.48518e-07
9.77309e-08
-3.69929e-07
9.78212e-08
-3.913e-07
9.76422e-08
-4.12578e-07
9.72132e-08
-4.33714e-07
9.65533e-08
-4.54663e-07
9.56815e-08
-4.75384e-07
9.46163e-08
-4.95839e-07
9.33755e-08
-5.15994e-07
9.19765e-08
-5.35817e-07
9.04361e-08
-5.55283e-07
8.87703e-08
-5.74366e-07
8.69943e-08
-5.93045e-07
8.51226e-08
-6.11304e-07
8.3169e-08
-6.29125e-07
8.11462e-08
-6.46496e-07
7.90665e-08
-6.63408e-07
7.6941e-08
-6.7985e-07
7.47802e-08
-6.95819e-07
7.25939e-08
-7.11309e-07
7.03909e-08
-7.26318e-07
6.81794e-08
-7.40845e-07