/*--------------------------------*- C++ -*----------------------------------*\
  =========                 |
  \\      /  F ield         | OpenFOAM: The Open Source CFD Toolbox
   \\    /   O peration     | Website:  https://openfoam.org
    \\  /    A nd           | Version:  7
     \\/     M anipulation  |
\*---------------------------------------------------------------------------*/
FoamFile
{
    version     2.0;
    format      ascii;
    class       volVectorField;
    location    "0.1875";
    object      U;
}
// * * * * * * * * * * * * * * * * * * * * * * * * * * * * * * * * * * * * * //

dimensions      [0 1 -1 0 0 0 0];

internalField   nonuniform List<vector> 
12800
(
(8.32505e-06 -8.32169e-06 0)
(3.70927e-05 -1.85338e-05 0)
(7.85348e-05 -1.97099e-05 0)
(0.000113244 -1.53518e-05 0)
(0.000129983 -8.31002e-06 0)
(0.000123866 -1.37984e-07 0)
(9.27498e-05 8.34476e-06 0)
(3.6022e-05 1.66963e-05 0)
(-4.59625e-05 2.46841e-05 0)
(-0.000152254 3.21892e-05 0)
(-0.000281554 3.91529e-05 0)
(-0.000432356 4.55495e-05 0)
(-0.000603041 5.13732e-05 0)
(-0.000791929 5.66311e-05 0)
(-0.000997329 6.13374e-05 0)
(-0.00121756 6.55104e-05 0)
(-0.00145099 6.91716e-05 0)
(-0.00169603 7.23449e-05 0)
(-0.00195112 7.50553e-05 0)
(-0.00221482 7.73279e-05 0)
(-0.00248571 7.91879e-05 0)
(-0.00276248 8.0661e-05 0)
(-0.00304387 8.17725e-05 0)
(-0.00332871 8.25475e-05 0)
(-0.0036159 8.30104e-05 0)
(-0.00390441 8.31847e-05 0)
(-0.00419332 8.30936e-05 0)
(-0.00448172 8.27593e-05 0)
(-0.00476883 8.22031e-05 0)
(-0.00505391 8.14457e-05 0)
(-0.00533629 8.05068e-05 0)
(-0.00561537 7.94053e-05 0)
(-0.00589059 7.8159e-05 0)
(-0.00616149 7.67847e-05 0)
(-0.00642762 7.52983e-05 0)
(-0.00668862 7.37151e-05 0)
(-0.00694415 7.2049e-05 0)
(-0.00719394 7.03133e-05 0)
(-0.00743775 6.85203e-05 0)
(-0.00767538 6.66813e-05 0)
(-0.00790668 6.48069e-05 0)
(-0.00813153 6.29069e-05 0)
(-0.00834983 6.09902e-05 0)
(-0.00856154 5.9065e-05 0)
(-0.00876661 5.71384e-05 0)
(-0.00896503 5.52174e-05 0)
(-0.00915684 5.33077e-05 0)
(-0.00934205 5.14149e-05 0)
(-0.00952073 4.95435e-05 0)
(-0.00969294 4.76977e-05 0)
(-0.00985876 4.58811e-05 0)
(-0.0100183 4.40965e-05 0)
(-0.0101717 4.23465e-05 0)
(-0.0103189 4.06332e-05 0)
(-0.0104603 3.89582e-05 0)
(-0.0105958 3.73227e-05 0)
(-0.0107256 3.57273e-05 0)
(-0.0108499 3.41726e-05 0)
(-0.0109687 3.26586e-05 0)
(-0.0110823 3.11852e-05 0)
(-0.0111907 2.97519e-05 0)
(-0.0112941 2.83576e-05 0)
(-0.0113925 2.70012e-05 0)
(-0.0114863 2.56817e-05 0)
(-0.0115753 2.43975e-05 0)
(-0.0116598 2.3147e-05 0)
(-0.0117399 2.1928e-05 0)
(-0.0118157 2.07384e-05 0)
(-0.0118872 1.95761e-05 0)
(-0.0119546 1.84387e-05 0)
(-0.012018 1.73236e-05 0)
(-0.0120773 1.62282e-05 0)
(-0.0121327 1.51495e-05 0)
(-0.0121843 1.40847e-05 0)
(-0.012232 1.30308e-05 0)
(-0.0122759 1.19848e-05 0)
(-0.012316 1.09435e-05 0)
(-0.0123523 9.90359e-06 0)
(-0.0123848 8.86166e-06 0)
(-0.0124136 7.81433e-06 0)
(-0.0124385 6.75826e-06 0)
(-0.0124596 5.69008e-06 0)
(-0.0124768 4.60632e-06 0)
(-0.01249 3.50342e-06 0)
(-0.0124991 2.37777e-06 0)
(-0.0125042 1.22581e-06 0)
(-0.012505 4.41223e-08 0)
(-0.0125015 -1.17071e-06 0)
(-0.0124936 -2.42208e-06 0)
(-0.0124811 -3.71341e-06 0)
(-0.0124638 -5.04807e-06 0)
(-0.0124417 -6.42928e-06 0)
(-0.0124146 -7.86013e-06 0)
(-0.0123823 -9.34355e-06 0)
(-0.0123445 -1.08823e-05 0)
(-0.0123012 -1.24792e-05 0)
(-0.0122521 -1.41364e-05 0)
(-0.012197 -1.58564e-05 0)
(-0.0121358 -1.76411e-05 0)
(-0.012068 -1.94921e-05 0)
(-0.0119937 -2.14108e-05 0)
(-0.0119124 -2.33982e-05 0)
(-0.0118241 -2.54548e-05 0)
(-0.0117284 -2.75807e-05 0)
(-0.0116252 -2.97759e-05 0)
(-0.0115142 -3.20393e-05 0)
(-0.0113951 -3.43697e-05 0)
(-0.0112678 -3.67652e-05 0)
(-0.0111321 -3.92231e-05 0)
(-0.0109878 -4.17402e-05 0)
(-0.0108347 -4.43125e-05 0)
(-0.0106725 -4.69353e-05 0)
(-0.0105013 -4.9603e-05 0)
(-0.0103208 -5.23093e-05 0)
(-0.0101309 -5.50469e-05 0)
(-0.00993164 -5.78077e-05 0)
(-0.00972286 -6.05824e-05 0)
(-0.0095046 -6.3361e-05 0)
(-0.00927687 -6.61324e-05 0)
(-0.00903974 -6.88845e-05 0)
(-0.00879332 -7.1604e-05 0)
(-0.00853775 -7.42768e-05 0)
(-0.00827326 -7.68877e-05 0)
(-0.0080001 -7.94202e-05 0)
(-0.00771858 -8.18572e-05 0)
(-0.00742909 -8.41802e-05 0)
(-0.00713206 -8.63699e-05 0)
(-0.006828 -8.8406e-05 0)
(-0.0065175 -9.02674e-05 0)
(-0.00620119 -9.19319e-05 0)
(-0.0058798 -9.33768e-05 0)
(-0.00555415 -9.45786e-05 0)
(-0.00522509 -9.55131e-05 0)
(-0.0048936 -9.61555e-05 0)
(-0.00456072 -9.64807e-05 0)
(-0.00422758 -9.64631e-05 0)
(-0.00389536 -9.60768e-05 0)
(-0.00356538 -9.52957e-05 0)
(-0.003239 -9.40939e-05 0)
(-0.00291766 -9.24453e-05 0)
(-0.0026029 -9.03242e-05 0)
(-0.00229633 -8.77053e-05 0)
(-0.00199961 -8.45636e-05 0)
(-0.0017145 -8.08748e-05 0)
(-0.0014428 -7.66159e-05 0)
(-0.00118635 -7.17654e-05 0)
(-0.000947061 -6.63045e-05 0)
(-0.000726841 -6.02166e-05 0)
(-0.000527613 -5.34902e-05 0)
(-0.000351271 -4.61209e-05 0)
(-0.000199639 -3.81173e-05 0)
(-7.44051e-05 -2.95079e-05 0)
(2.29713e-05 -2.03564e-05 0)
(9.14169e-05 -1.07911e-05 0)
(0.000130503 -1.06234e-06 0)
(0.000140861 8.35048e-06 0)
(0.000124806 1.65442e-05 0)
(8.77007e-05 2.17868e-05 0)
(4.20361e-05 2.08579e-05 0)
(9.63182e-06 9.63105e-06 0)
(1.85506e-05 -3.70743e-05 0)
(7.03491e-05 -7.02858e-05 0)
(0.000132042 -6.77444e-05 0)
(0.00017014 -4.20769e-05 0)
(0.000163359 -3.14619e-06 0)
(0.000100271 4.27184e-05 0)
(-2.53898e-05 9.15492e-05 0)
(-0.00021636 0.000140863 0)
(-0.00047285 0.000189115 0)
(-0.000793352 0.000235345 0)
(-0.00117522 0.00027896 0)
(-0.00161508 0.000319606 0)
(-0.00210904 0.000357086 0)
(-0.00265296 0.000391312 0)
(-0.00324253 0.000422266 0)
(-0.00387339 0.000449984 0)
(-0.00454121 0.000474534 0)
(-0.00524172 0.000496017 0)
(-0.00597079 0.000514548 0)
(-0.0067244 0.000530255 0)
(-0.00749871 0.000543276 0)
(-0.00829007 0.000553755 0)
(-0.00909498 0.000561839 0)
(-0.00991017 0.000567675 0)
(-0.0107326 0.000571412 0)
(-0.0115593 0.000573197 0)
(-0.0123876 0.000573174 0)
(-0.013215 0.000571486 0)
(-0.0140393 0.000568269 0)
(-0.0148583 0.000563656 0)
(-0.0156701 0.000557778 0)
(-0.016473 0.000550756 0)
(-0.0172654 0.000542711 0)
(-0.0180458 0.000533754 0)
(-0.018813 0.000523992 0)
(-0.0195659 0.000513528 0)
(-0.0203036 0.000502456 0)
(-0.0210251 0.000490867 0)
(-0.0217299 0.000478845 0)
(-0.0224172 0.000466468 0)
(-0.0230866 0.00045381 0)
(-0.0237378 0.000440937 0)
(-0.0243704 0.000427912 0)
(-0.0249842 0.000414791 0)
(-0.0255792 0.000401628 0)
(-0.0261551 0.000388468 0)
(-0.0267122 0.000375354 0)
(-0.0272504 0.000362325 0)
(-0.0277699 0.000349415 0)
(-0.0282708 0.000336652 0)
(-0.0287533 0.000324063 0)
(-0.0292178 0.00031167 0)
(-0.0296644 0.000299491 0)
(-0.0300936 0.000287543 0)
(-0.0305055 0.000275837 0)
(-0.0309006 0.000264383 0)
(-0.0312792 0.000253188 0)
(-0.0316417 0.000242256 0)
(-0.0319884 0.000231588 0)
(-0.0323198 0.000221185 0)
(-0.0326361 0.000211043 0)
(-0.0329378 0.000201157 0)
(-0.0332252 0.000191523 0)
(-0.0334986 0.00018213 0)
(-0.0337584 0.00017297 0)
(-0.034005 0.000164032 0)
(-0.0342385 0.000155303 0)
(-0.0344594 0.000146769 0)
(-0.0346678 0.000138416 0)
(-0.034864 0.000130226 0)
(-0.0350482 0.000122184 0)
(-0.0352207 0.000114272 0)
(-0.0353816 0.000106471 0)
(-0.035531 9.87601e-05 0)
(-0.035669 9.11205e-05 0)
(-0.0357958 8.35309e-05 0)
(-0.0359114 7.597e-05 0)
(-0.0360158 6.84157e-05 0)
(-0.036109 6.08456e-05 0)
(-0.036191 5.3237e-05 0)
(-0.0362616 4.5567e-05 0)
(-0.0363209 3.78124e-05 0)
(-0.0363685 2.99496e-05 0)
(-0.0364045 2.19551e-05 0)
(-0.0364285 1.38052e-05 0)
(-0.0364404 5.4763e-06 0)
(-0.0364398 -3.05488e-06 0)
(-0.0364264 -1.18114e-05 0)
(-0.0364 -2.08159e-05 0)
(-0.0363601 -3.00907e-05 0)
(-0.0363063 -3.96577e-05 0)
(-0.0362382 -4.9538e-05 0)
(-0.0361554 -5.97516e-05 0)
(-0.0360573 -7.03179e-05 0)
(-0.0359435 -8.12549e-05 0)
(-0.0358134 -9.25796e-05 0)
(-0.0356664 -0.000104307 0)
(-0.035502 -0.000116451 0)
(-0.0353195 -0.000129024 0)
(-0.0351184 -0.000142035 0)
(-0.034898 -0.000155492 0)
(-0.0346577 -0.0001694 0)
(-0.0343969 -0.000183762 0)
(-0.0341149 -0.000198575 0)
(-0.033811 -0.000213837 0)
(-0.0334848 -0.00022954 0)
(-0.0331355 -0.000245674 0)
(-0.0327626 -0.000262221 0)
(-0.0323654 -0.000279164 0)
(-0.0319436 -0.000296478 0)
(-0.0314966 -0.000314133 0)
(-0.0310239 -0.000332096 0)
(-0.0305253 -0.000350327 0)
(-0.0300002 -0.000368781 0)
(-0.0294486 -0.000387406 0)
(-0.0288701 -0.000406146 0)
(-0.0282648 -0.000424937 0)
(-0.0276326 -0.00044371 0)
(-0.0269737 -0.000462387 0)
(-0.0262882 -0.000480885 0)
(-0.0255766 -0.000499116 0)
(-0.0248392 -0.000516982 0)
(-0.0240768 -0.000534379 0)
(-0.0232902 -0.000551199 0)
(-0.0224802 -0.000567324 0)
(-0.0216479 -0.000582632 0)
(-0.0207947 -0.000596993 0)
(-0.0199221 -0.000610273 0)
(-0.0190317 -0.000622332 0)
(-0.0181253 -0.000633025 0)
(-0.0172051 -0.000642201 0)
(-0.0162734 -0.000649709 0)
(-0.0153327 -0.00065539 0)
(-0.0143856 -0.000659085 0)
(-0.0134352 -0.000660635 0)
(-0.0124846 -0.000659876 0)
(-0.0115372 -0.000656647 0)
(-0.0105966 -0.000650788 0)
(-0.00966677 -0.00064214 0)
(-0.0087516 -0.000630549 0)
(-0.00785537 -0.000615866 0)
(-0.00698251 -0.000597949 0)
(-0.00613763 -0.000576667 0)
(-0.00532546 -0.000551899 0)
(-0.00455088 -0.000523544 0)
(-0.00381887 -0.000491519 0)
(-0.00313441 -0.000455775 0)
(-0.00250252 -0.000416298 0)
(-0.0019281 -0.000373132 0)
(-0.00141586 -0.000326396 0)
(-0.000970167 -0.000276323 0)
(-0.000594841 -0.000223313 0)
(-0.000292864 -0.000168021 0)
(-6.59517e-05 -0.0001115 0)
(8.60699e-05 -5.54471e-05 0)
(0.00016617 -2.59335e-06 0)
(0.000181234 4.2659e-05 0)
(0.000143924 7.32222e-05 0)
(7.79572e-05 7.79239e-05 0)
(2.08573e-05 4.20227e-05 0)
(1.98019e-05 -7.86096e-05 0)
(6.80998e-05 -0.000132066 0)
(0.000111188 -0.000110643 0)
(0.000110372 -3.94372e-05 0)
(4.03987e-05 6.29738e-05 0)
(-0.00011359 0.000183373 0)
(-0.00036049 0.000312615 0)
(-0.000704698 0.000444492 0)
(-0.00114716 0.000574828 0)
(-0.00168631 0.000700829 0)
(-0.00231881 0.000820644 0)
(-0.00304009 0.000933079 0)
(-0.0038447 0.00103739 0)
(-0.00472667 0.00113317 0)
(-0.00567969 0.00122023 0)
(-0.00669727 0.00129856 0)
(-0.00777288 0.00136824 0)
(-0.00890007 0.00142949 0)
(-0.0100725 0.00148257 0)
(-0.0112839 0.00152777 0)
(-0.0125284 0.00156546 0)
(-0.0138003 0.00159599 0)
(-0.0150941 0.00161976 0)
(-0.0164047 0.00163715 0)
(-0.0177272 0.00164857 0)
(-0.0190571 0.00165442 0)
(-0.0203899 0.00165509 0)
(-0.0217219 0.00165098 0)
(-0.0230494 0.00164246 0)
(-0.0243689 0.00162992 0)
(-0.0256773 0.0016137 0)
(-0.0269719 0.00159417 0)
(-0.0282501 0.00157165 0)
(-0.0295096 0.00154647 0)
(-0.0307483 0.00151892 0)
(-0.0319645 0.00148931 0)
(-0.0331566 0.00145789 0)
(-0.0343231 0.00142494 0)
(-0.035463 0.00139069 0)
(-0.0365751 0.00135536 0)
(-0.0376588 0.00131917 0)
(-0.0387134 0.00128232 0)
(-0.0397382 0.00124497 0)
(-0.0407331 0.00120731 0)
(-0.0416977 0.00116947 0)
(-0.042632 0.0011316 0)
(-0.0435359 0.00109382 0)
(-0.0444095 0.00105624 0)
(-0.0452529 0.00101897 0)
(-0.0460665 0.000982081 0)
(-0.0468506 0.000945659 0)
(-0.0476054 0.000909769 0)
(-0.0483315 0.000874467 0)
(-0.0490293 0.000839798 0)
(-0.0496993 0.0008058 0)
(-0.0503421 0.000772502 0)
(-0.0509581 0.000739926 0)
(-0.051548 0.000708085 0)
(-0.0521123 0.000676985 0)
(-0.0526516 0.000646626 0)
(-0.0531665 0.000617002 0)
(-0.0536575 0.000588102 0)
(-0.0541253 0.000559909 0)
(-0.0545703 0.000532399 0)
(-0.0549931 0.000505547 0)
(-0.0553942 0.00047932 0)
(-0.0557741 0.000453685 0)
(-0.0561332 0.000428602 0)
(-0.0564719 0.00040403 0)
(-0.0567907 0.000379922 0)
(-0.0570898 0.000356231 0)
(-0.0573696 0.000332905 0)
(-0.0576304 0.000309891 0)
(-0.0578723 0.000287134 0)
(-0.0580956 0.000264575 0)
(-0.0583003 0.000242156 0)
(-0.0584866 0.000219815 0)
(-0.0586545 0.00019749 0)
(-0.058804 0.000175116 0)
(-0.058935 0.000152629 0)
(-0.0590474 0.000129964 0)
(-0.059141 0.000107053 0)
(-0.0592157 8.38297e-05 0)
(-0.059271 6.0227e-05 0)
(-0.0593068 3.6178e-05 0)
(-0.0593225 1.16157e-05 0)
(-0.0593178 -1.35259e-05 0)
(-0.0592923 -3.93125e-05 0)
(-0.0592452 -6.58085e-05 0)
(-0.0591761 -9.3077e-05 0)
(-0.0590844 -0.000121179 0)
(-0.0589692 -0.000150174 0)
(-0.05883 -0.000180119 0)
(-0.0586659 -0.000211068 0)
(-0.0584762 -0.00024307 0)
(-0.0582599 -0.000276174 0)
(-0.0580161 -0.00031042 0)
(-0.0577441 -0.000345847 0)
(-0.0574427 -0.000382486 0)
(-0.0571111 -0.000420364 0)
(-0.0567483 -0.0004595 0)
(-0.0563533 -0.000499905 0)
(-0.055925 -0.000541585 0)
(-0.0554626 -0.000584535 0)
(-0.0549649 -0.000628741 0)
(-0.0544312 -0.000674179 0)
(-0.0538603 -0.000720813 0)
(-0.0532514 -0.000768599 0)
(-0.0526036 -0.000817476 0)
(-0.0519162 -0.000867372 0)
(-0.0511883 -0.000918203 0)
(-0.0504193 -0.000969866 0)
(-0.0496087 -0.00102225 0)
(-0.0487559 -0.00107521 0)
(-0.0478606 -0.00112862 0)
(-0.0469226 -0.00118229 0)
(-0.0459417 -0.00123605 0)
(-0.044918 -0.0012897 0)
(-0.0438518 -0.00134301 0)
(-0.0427434 -0.00139575 0)
(-0.0415934 -0.00144766 0)
(-0.0404028 -0.00149847 0)
(-0.0391724 -0.00154787 0)
(-0.0379037 -0.00159555 0)
(-0.0365981 -0.00164119 0)
(-0.0352574 -0.00168442 0)
(-0.0338838 -0.0017249 0)
(-0.0324797 -0.00176223 0)
(-0.0310478 -0.00179602 0)
(-0.0295909 -0.00182587 0)
(-0.0281126 -0.00185134 0)
(-0.0266165 -0.00187201 0)
(-0.0251065 -0.00188745 0)
(-0.023587 -0.0018972 0)
(-0.0220627 -0.00190083 0)
(-0.0205387 -0.00189788 0)
(-0.0190202 -0.00188791 0)
(-0.017513 -0.00187049 0)
(-0.0160232 -0.00184519 0)
(-0.014557 -0.0018116 0)
(-0.0131211 -0.00176933 0)
(-0.0117223 -0.00171801 0)
(-0.0103678 -0.00165732 0)
(-0.00906497 -0.00158698 0)
(-0.00782117 -0.00150677 0)
(-0.00664398 -0.00141654 0)
(-0.00554096 -0.00131625 0)
(-0.00451955 -0.00120599 0)
(-0.00358697 -0.00108604 0)
(-0.00275002 -0.000956899 0)
(-0.00201483 -0.000819445 0)
(-0.00138659 -0.000675026 0)
(-0.00086906 -0.0005257 0)
(-0.000464031 -0.000374556 0)
(-0.000170507 -0.000226205 0)
(1.63416e-05 -8.75198e-05 0)
(0.000106354 3.13212e-05 0)
(0.000116047 0.000115497 0)
(7.35232e-05 0.000143962 0)
(2.18412e-05 8.77301e-05 0)
(1.55768e-05 -0.000113637 0)
(4.29142e-05 -0.000170626 0)
(4.08761e-05 -0.000110033 0)
(-2.81443e-05 2.97541e-05 0)
(-0.000189838 0.000221199 0)
(-0.000460396 0.000443864 0)
(-0.000849887 0.000682885 0)
(-0.00136354 0.000927673 0)
(-0.00200272 0.00117076 0)
(-0.00276585 0.00140692 0)
(-0.00364913 0.00163254 0)
(-0.00464717 0.00184518 0)
(-0.0057534 0.00204326 0)
(-0.00696047 0.0022258 0)
(-0.00826051 0.00239228 0)
(-0.00964534 0.00254252 0)
(-0.0111067 0.00267662 0)
(-0.0126362 0.00279483 0)
(-0.0142257 0.00289757 0)
(-0.0158672 0.00298536 0)
(-0.0175529 0.00305881 0)
(-0.0192753 0.00311856 0)
(-0.0210273 0.00316532 0)
(-0.022802 0.00319981 0)
(-0.0245929 0.00322278 0)
(-0.0263941 0.00323496 0)
(-0.0281997 0.00323711 0)
(-0.0300046 0.00322995 0)
(-0.0318037 0.00321423 0)
(-0.0335926 0.00319064 0)
(-0.035367 0.00315988 0)
(-0.0371232 0.00312261 0)
(-0.0388578 0.00307948 0)
(-0.0405675 0.00303111 0)
(-0.0422496 0.00297807 0)
(-0.0439017 0.00292094 0)
(-0.0455216 0.00286023 0)
(-0.0471073 0.00279646 0)
(-0.0486573 0.00273009 0)
(-0.0501701 0.00266155 0)
(-0.0516447 0.00259127 0)
(-0.0530801 0.00251963 0)
(-0.0544756 0.00244696 0)
(-0.0558307 0.00237361 0)
(-0.057145 0.00229986 0)
(-0.0584183 0.00222598 0)
(-0.0596506 0.00215223 0)
(-0.0608419 0.00207881 0)
(-0.0619924 0.00200593 0)
(-0.0631025 0.00193376 0)
(-0.0641726 0.00186245 0)
(-0.065203 0.00179213 0)
(-0.0661944 0.00172291 0)
(-0.0671474 0.00165489 0)
(-0.0680626 0.00158815 0)
(-0.0689406 0.00152273 0)
(-0.0697823 0.00145869 0)
(-0.0705883 0.00139605 0)
(-0.0713595 0.00133483 0)
(-0.0720965 0.00127503 0)
(-0.0728002 0.00121664 0)
(-0.0734713 0.00115964 0)
(-0.0741105 0.001104 0)
(-0.0747186 0.00104967 0)
(-0.0752962 0.000996605 0)
(-0.0758441 0.000944746 0)
(-0.0763629 0.000894024 0)
(-0.0768531 0.000844366 0)
(-0.0773154 0.00079569 0)
(-0.0777501 0.000747909 0)
(-0.0781579 0.00070093 0)
(-0.0785391 0.000654654 0)
(-0.078894 0.000608978 0)
(-0.079223 0.000563794 0)
(-0.0795263 0.00051899 0)
(-0.079804 0.000474453 0)
(-0.0800563 0.000430062 0)
(-0.0802832 0.000385697 0)
(-0.0804847 0.000341233 0)
(-0.0806607 0.000296546 0)
(-0.080811 0.000251507 0)
(-0.0809354 0.000205989 0)
(-0.0810337 0.000159862 0)
(-0.0811053 0.000112996 0)
(-0.08115 6.52613e-05 0)
(-0.0811671 1.65293e-05 0)
(-0.0811561 -3.33283e-05 0)
(-0.0811164 -8.44377e-05 0)
(-0.0810471 -0.000136923 0)
(-0.0809476 -0.000190905 0)
(-0.080817 -0.000246502 0)
(-0.0806543 -0.000303828 0)
(-0.0804585 -0.00036299 0)
(-0.0802288 -0.000424093 0)
(-0.0799639 -0.000487231 0)
(-0.0796627 -0.000552493 0)
(-0.0793241 -0.00061996 0)
(-0.0789468 -0.000689701 0)
(-0.0785297 -0.000761776 0)
(-0.0780713 -0.000836234 0)
(-0.0775704 -0.000913107 0)
(-0.0770257 -0.000992418 0)
(-0.076436 -0.00107417 0)
(-0.0757998 -0.00115835 0)
(-0.0751158 -0.00124494 0)
(-0.0743829 -0.00133387 0)
(-0.0735998 -0.00142508 0)
(-0.0727653 -0.00151847 0)
(-0.0718782 -0.00161393 0)
(-0.0709375 -0.00171132 0)
(-0.0699423 -0.00181045 0)
(-0.0688918 -0.00191114 0)
(-0.067785 -0.00201316 0)
(-0.0666216 -0.00211624 0)
(-0.065401 -0.00222009 0)
(-0.0641229 -0.0023244 0)
(-0.0627874 -0.00242879 0)
(-0.0613944 -0.00253289 0)
(-0.0599444 -0.00263626 0)
(-0.0584379 -0.00273843 0)
(-0.0568758 -0.0028389 0)
(-0.0552594 -0.00293714 0)
(-0.0535899 -0.00303258 0)
(-0.0518692 -0.00312461 0)
(-0.0500995 -0.00321259 0)
(-0.0482831 -0.00329584 0)
(-0.046423 -0.00337365 0)
(-0.0445224 -0.00344531 0)
(-0.0425849 -0.00351004 0)
(-0.0406145 -0.00356706 0)
(-0.0386159 -0.00361556 0)
(-0.0365938 -0.00365473 0)
(-0.0345536 -0.00368373 0)
(-0.0325013 -0.00370171 0)
(-0.0304429 -0.00370783 0)
(-0.0283852 -0.00370126 0)
(-0.0263354 -0.00368114 0)
(-0.024301 -0.00364668 0)
(-0.0222899 -0.00359709 0)
(-0.0203106 -0.0035316 0)
(-0.0183716 -0.00344952 0)
(-0.0164821 -0.0033502 0)
(-0.0146513 -0.00323308 0)
(-0.0128887 -0.00309771 0)
(-0.0112039 -0.00294374 0)
(-0.00960674 -0.00277102 0)
(-0.00810672 -0.00257959 0)
(-0.00671328 -0.00236977 0)
(-0.00543541 -0.00214227 0)
(-0.0042815 -0.00189827 0)
(-0.00325897 -0.00163962 0)
(-0.00237393 -0.00136909 0)
(-0.00163065 -0.00109071 0)
(-0.00103095 -0.000810291 0)
(-0.000573342 -0.000536093 0)
(-0.000252044 -0.00027987 0)
(-5.5881e-05 -5.81817e-05 0)
(3.31615e-05 0.000106076 0)
(4.35493e-05 0.000181804 0)
(1.67307e-05 0.000125107 0)
(8.69253e-06 -0.000131007 0)
(4.48444e-06 -0.000164756 0)
(-6.07526e-05 -4.06484e-05 0)
(-0.000218728 0.000191283 0)
(-0.000492938 0.000495191 0)
(-0.000899363 0.000843831 0)
(-0.00144806 0.00121675 0)
(-0.00214428 0.00159888 0)
(-0.00298936 0.00197922 0)
(-0.00398149 0.00234982 0)
(-0.00511646 0.00270501 0)
(-0.00638818 0.00304082 0)
(-0.00778923 0.00335456 0)
(-0.00931115 0.00364451 0)
(-0.0109448 0.00390965 0)
(-0.0126808 0.00414955 0)
(-0.0145092 0.00436418 0)
(-0.0164202 0.00455384 0)
(-0.0184042 0.00471907 0)
(-0.0204515 0.00486061 0)
(-0.0225528 0.00497934 0)
(-0.024699 0.00507622 0)
(-0.0268815 0.00515234 0)
(-0.0290921 0.00520878 0)
(-0.0313227 0.0052467 0)
(-0.0335662 0.00526727 0)
(-0.0358154 0.00527164 0)
(-0.0380638 0.00526099 0)
(-0.0403055 0.00523646 0)
(-0.0425348 0.00519917 0)
(-0.0447465 0.00515023 0)
(-0.0469361 0.0050907 0)
(-0.049099 0.00502161 0)
(-0.0512316 0.00494395 0)
(-0.0533303 0.00485865 0)
(-0.0553921 0.00476664 0)
(-0.0574142 0.00466875 0)
(-0.0593942 0.0045658 0)
(-0.06133 0.00445854 0)
(-0.0632201 0.00434769 0)
(-0.0650628 0.00423392 0)
(-0.066857 0.00411784 0)
(-0.0686018 0.00400003 0)
(-0.0702966 0.00388101 0)
(-0.0719407 0.00376127 0)
(-0.0735339 0.00364125 0)
(-0.0750762 0.00352134 0)
(-0.0765675 0.00340191 0)
(-0.0780082 0.00328329 0)
(-0.0793985 0.00316574 0)
(-0.0807389 0.00304954 0)
(-0.0820299 0.00293488 0)
(-0.0832723 0.00282196 0)
(-0.0844666 0.00271092 0)
(-0.0856137 0.00260191 0)
(-0.0867145 0.002495 0)
(-0.0877698 0.00239029 0)
(-0.0887804 0.00228781 0)
(-0.0897474 0.0021876 0)
(-0.0906716 0.00208965 0)
(-0.091554 0.00199397 0)
(-0.0923954 0.00190051 0)
(-0.0931969 0.00180922 0)
(-0.0939592 0.00172004 0)
(-0.0946833 0.00163289 0)
(-0.0953699 0.00154767 0)
(-0.0960199 0.00146429 0)
(-0.0966339 0.00138261 0)
(-0.0972126 0.0013025 0)
(-0.0977567 0.00122384 0)
(-0.0982667 0.00114646 0)
(-0.0987431 0.00107021 0)
(-0.0991864 0.000994917 0)
(-0.0995969 0.000920417 0)
(-0.0999749 0.000846525 0)
(-0.100321 0.000773055 0)
(-0.100634 0.000699817 0)
(-0.100916 0.000626614 0)
(-0.101165 0.000553248 0)
(-0.101382 0.000479514 0)
(-0.101567 0.000405208 0)
(-0.101718 0.000330123 0)
(-0.101837 0.000254049 0)
(-0.101922 0.000176779 0)
(-0.101973 9.81028e-05 0)
(-0.10199 1.78128e-05 0)
(-0.10197 -6.42967e-05 0)
(-0.101915 -0.000148429 0)
(-0.101822 -0.000234782 0)
(-0.101692 -0.000323551 0)
(-0.101522 -0.000414925 0)
(-0.101311 -0.000509085 0)
(-0.10106 -0.000606205 0)
(-0.100765 -0.000706447 0)
(-0.100426 -0.000809966 0)
(-0.100042 -0.0009169 0)
(-0.0996114 -0.00102738 0)
(-0.099132 -0.00114151 0)
(-0.0986027 -0.00125938 0)
(-0.0980219 -0.00138107 0)
(-0.097388 -0.00150664 0)
(-0.0966995 -0.0016361 0)
(-0.0959547 -0.00176947 0)
(-0.0951521 -0.00190672 0)
(-0.09429 -0.00204779 0)
(-0.093367 -0.00219261 0)
(-0.0923816 -0.00234104 0)
(-0.0913323 -0.00249294 0)
(-0.0902177 -0.0026481 0)
(-0.0890367 -0.0028063 0)
(-0.0877881 -0.00296725 0)
(-0.0864709 -0.00313063 0)
(-0.0850842 -0.00329606 0)
(-0.0836273 -0.00346311 0)
(-0.0820998 -0.00363133 0)
(-0.0805012 -0.00380016 0)
(-0.0788317 -0.00396905 0)
(-0.0770914 -0.00413734 0)
(-0.0752807 -0.00430434 0)
(-0.0734005 -0.00446931 0)
(-0.0714519 -0.00463142 0)
(-0.0694363 -0.00478982 0)
(-0.0673556 -0.00494359 0)
(-0.065212 -0.00509174 0)
(-0.0630082 -0.00523324 0)
(-0.0607473 -0.00536701 0)
(-0.0584327 -0.00549193 0)
(-0.0560686 -0.0056068 0)
(-0.0536594 -0.00571043 0)
(-0.0512101 -0.00580154 0)
(-0.0487263 -0.00587886 0)
(-0.0462141 -0.00594108 0)
(-0.0436799 -0.00598687 0)
(-0.041131 -0.0060149 0)
(-0.038575 -0.00602383 0)
(-0.03602 -0.00601233 0)
(-0.0334749 -0.0059791 0)
(-0.0309487 -0.00592288 0)
(-0.0284511 -0.00584243 0)
(-0.0259923 -0.00573662 0)
(-0.0235827 -0.00560437 0)
(-0.0212332 -0.00544473 0)
(-0.018955 -0.00525689 0)
(-0.0167594 -0.00504021 0)
(-0.0146579 -0.0047943 0)
(-0.012662 -0.00451902 0)
(-0.0107829 -0.00421462 0)
(-0.00903167 -0.0038818 0)
(-0.00741874 -0.00352186 0)
(-0.00595373 -0.0031369 0)
(-0.00464506 -0.00273004 0)
(-0.00349961 -0.00230579 0)
(-0.00252214 -0.00187052 0)
(-0.00171466 -0.00143307 0)
(-0.00107572 -0.00100566 0)
(-0.000599502 -0.000605001 0)
(-0.000274814 -0.00025388 0)
(-8.38879e-05 1.72426e-05 0)
(-8.59034e-07 0.000168055 0)
(8.73579e-06 0.000141837 0)
(6.65232e-07 -0.000125805 0)
(-4.10631e-05 -0.000102827 0)
(-0.000181025 0.000112783 0)
(-0.000441966 0.000461989 0)
(-0.000843281 0.000901833 0)
(-0.00139954 0.001399 0)
(-0.00211984 0.00192786 0)
(-0.00300869 0.00246906 0)
(-0.00406691 0.00300808 0)
(-0.0052922 0.00353415 0)
(-0.00667978 0.00403938 0)
(-0.00822291 0.00451811 0)
(-0.00991336 0.00496639 0)
(-0.0117418 0.00538157 0)
(-0.013698 0.00576205 0)
(-0.0157714 0.00610701 0)
(-0.0179509 0.00641624 0)
(-0.0202256 0.00669001 0)
(-0.0225842 0.00692897 0)
(-0.025016 0.00713407 0)
(-0.0275102 0.00730645 0)
(-0.0300564 0.00744744 0)
(-0.0326447 0.00755849 0)
(-0.0352656 0.00764114 0)
(-0.0379099 0.007697 0)
(-0.040569 0.00772769 0)
(-0.0432349 0.00773487 0)
(-0.0458999 0.00772019 0)
(-0.048557 0.00768529 0)
(-0.0511997 0.00763178 0)
(-0.0538218 0.00756124 0)
(-0.0564179 0.00747519 0)
(-0.058983 0.00737513 0)
(-0.0615124 0.00726248 0)
(-0.0640021 0.00713861 0)
(-0.0664485 0.00700483 0)
(-0.0688481 0.00686237 0)
(-0.0711984 0.00671241 0)
(-0.0734967 0.00655606 0)
(-0.0757411 0.00639437 0)
(-0.0779297 0.00622829 0)
(-0.0800612 0.00605873 0)
(-0.0821344 0.00588654 0)
(-0.0841484 0.00571248 0)
(-0.0861027 0.00553727 0)
(-0.087997 0.00536154 0)
(-0.0898309 0.0051859 0)
(-0.0916047 0.00501087 0)
(-0.0933184 0.00483692 0)
(-0.0949725 0.00466448 0)
(-0.0965675 0.00449391 0)
(-0.098104 0.00432553 0)
(-0.0995827 0.00415962 0)
(-0.101004 0.0039964 0)
(-0.10237 0.00383608 0)
(-0.103681 0.00367878 0)
(-0.104937 0.00352463 0)
(-0.106141 0.0033737 0)
(-0.107292 0.00322603 0)
(-0.108393 0.00308164 0)
(-0.109443 0.00294051 0)
(-0.110445 0.00280259 0)
(-0.1114 0.00266781 0)
(-0.112307 0.00253609 0)
(-0.113169 0.0024073 0)
(-0.113986 0.00228132 0)
(-0.114759 0.00215797 0)
(-0.115489 0.00203711 0)
(-0.116177 0.00191852 0)
(-0.116824 0.00180202 0)
(-0.11743 0.00168738 0)
(-0.117995 0.00157438 0)
(-0.118521 0.00146277 0)
(-0.119007 0.0013523 0)
(-0.119455 0.0012427 0)
(-0.119863 0.00113372 0)
(-0.120233 0.00102506 0)
(-0.120565 0.000916448 0)
(-0.120858 0.000807591 0)
(-0.121112 0.000698195 0)
(-0.121328 0.00058796 0)
(-0.121504 0.000476586 0)
(-0.12164 0.000363768 0)
(-0.121736 0.000249205 0)
(-0.121791 0.000132593 0)
(-0.121805 1.36311e-05 0)
(-0.121776 -0.00010798 0)
(-0.121704 -0.000232533 0)
(-0.121587 -0.000360317 0)
(-0.121424 -0.000491614 0)
(-0.121215 -0.000626694 0)
(-0.120958 -0.000765821 0)
(-0.120651 -0.000909244 0)
(-0.120293 -0.0010572 0)
(-0.119883 -0.0012099 0)
(-0.119419 -0.00136756 0)
(-0.118898 -0.00153034 0)
(-0.11832 -0.00169841 0)
(-0.117683 -0.0018719 0)
(-0.116985 -0.00205091 0)
(-0.116224 -0.00223552 0)
(-0.115398 -0.00242575 0)
(-0.114505 -0.00262161 0)
(-0.113544 -0.00282305 0)
(-0.112512 -0.00303 0)
(-0.111409 -0.00324233 0)
(-0.110232 -0.00345985 0)
(-0.108979 -0.00368232 0)
(-0.107649 -0.00390947 0)
(-0.106241 -0.00414094 0)
(-0.104753 -0.00437631 0)
(-0.103185 -0.00461511 0)
(-0.101534 -0.00485678 0)
(-0.0998012 -0.00510071 0)
(-0.0979851 -0.00534621 0)
(-0.0960855 -0.00559249 0)
(-0.0941026 -0.00583871 0)
(-0.0920366 -0.00608394 0)
(-0.089888 -0.00632717 0)
(-0.0876578 -0.0065673 0)
(-0.0853475 -0.00680315 0)
(-0.0829588 -0.00703346 0)
(-0.0804937 -0.0072569 0)
(-0.0779551 -0.00747205 0)
(-0.0753461 -0.00767741 0)
(-0.0726702 -0.00787141 0)
(-0.0699317 -0.00805242 0)
(-0.0671353 -0.00821874 0)
(-0.0642863 -0.00836861 0)
(-0.0613905 -0.00850022 0)
(-0.0584545 -0.00861173 0)
(-0.0554853 -0.00870126 0)
(-0.0524905 -0.00876691 0)
(-0.0494785 -0.00880676 0)
(-0.0464583 -0.00881892 0)
(-0.0434392 -0.0088015 0)
(-0.0404313 -0.00875266 0)
(-0.0374454 -0.0086706 0)
(-0.0344925 -0.00855364 0)
(-0.0315843 -0.00840017 0)
(-0.0287328 -0.00820873 0)
(-0.0259506 -0.00797804 0)
(-0.0232504 -0.00770705 0)
(-0.020645 -0.00739498 0)
(-0.0181476 -0.00704137 0)
(-0.015771 -0.00664622 0)
(-0.0135281 -0.00621006 0)
(-0.011431 -0.00573409 0)
(-0.00949156 -0.00522038 0)
(-0.00772029 -0.00467211 0)
(-0.00612658 -0.00409388 0)
(-0.00471803 -0.00349214 0)
(-0.00350001 -0.00287576 0)
(-0.00247508 -0.00225676 0)
(-0.00164236 -0.00165126 0)
(-0.000996798 -0.00108077 0)
(-0.00052829 -0.000573775 0)
(-0.000220659 -0.000167419 0)
(-5.27529e-05 9.02086e-05 0)
(-4.36194e-07 0.000132675 0)
(-7.72372e-06 -9.57408e-05 0)
(-8.99822e-05 2.18992e-05 0)
(-0.000311377 0.000359986 0)
(-0.000684058 0.000853146 0)
(-0.00122208 0.00145276 0)
(-0.00193771 0.00212039 0)
(-0.00283828 0.00282587 0)
(-0.00392697 0.00354591 0)
(-0.00520357 0.00426266 0)
(-0.00666498 0.0049626 0)
(-0.00830566 0.00563561 0)
(-0.0101181 0.00627427 0)
(-0.0120934 0.00687326 0)
(-0.0142211 0.00742895 0)
(-0.0164904 0.00793904 0)
(-0.0188895 0.00840223 0)
(-0.0214064 0.0088181 0)
(-0.0240289 0.00918684 0)
(-0.0267449 0.00950916 0)
(-0.0295422 0.0097862 0)
(-0.0324091 0.0100194 0)
(-0.0353339 0.0102104 0)
(-0.0383057 0.0103611 0)
(-0.0413137 0.0104735 0)
(-0.0443477 0.0105497 0)
(-0.0473982 0.0105919 0)
(-0.0504559 0.0106021 0)
(-0.0535125 0.0105827 0)
(-0.0565598 0.0105358 0)
(-0.0595905 0.0104636 0)
(-0.0625978 0.0103681 0)
(-0.0655754 0.0102515 0)
(-0.0685175 0.0101157 0)
(-0.071419 0.00996269 0)
(-0.0742753 0.00979428 0)
(-0.0770821 0.00961226 0)
(-0.0798357 0.0094183 0)
(-0.082533 0.009214 0)
(-0.085171 0.00900087 0)
(-0.0877474 0.00878032 0)
(-0.0902603 0.00855368 0)
(-0.0927079 0.00832218 0)
(-0.0950889 0.00808696 0)
(-0.0974023 0.00784908 0)
(-0.0996474 0.00760951 0)
(-0.101824 0.00736914 0)
(-0.103931 0.00712877 0)
(-0.10597 0.00688913 0)
(-0.10794 0.00665087 0)
(-0.109841 0.00641458 0)
(-0.111675 0.00618074 0)
(-0.113442 0.00594982 0)
(-0.115142 0.00572219 0)
(-0.116777 0.00549816 0)
(-0.118348 0.005278 0)
(-0.119855 0.00506192 0)
(-0.1213 0.00485006 0)
(-0.122685 0.00464255 0)
(-0.124009 0.00443943 0)
(-0.125275 0.00424073 0)
(-0.126483 0.00404644 0)
(-0.127635 0.00385649 0)
(-0.128733 0.00367079 0)
(-0.129776 0.00348922 0)
(-0.130767 0.00331162 0)
(-0.131706 0.00313782 0)
(-0.132594 0.00296759 0)
(-0.133433 0.00280072 0)
(-0.134223 0.00263694 0)
(-0.134965 0.00247598 0)
(-0.13566 0.00231755 0)
(-0.136308 0.00216132 0)
(-0.13691 0.00200698 0)
(-0.137467 0.00185419 0)
(-0.137978 0.00170257 0)
(-0.138445 0.00155178 0)
(-0.138867 0.00140143 0)
(-0.139244 0.00125113 0)
(-0.139577 0.00110049 0)
(-0.139865 0.000949113 0)
(-0.140108 0.000796591 0)
(-0.140305 0.000642514 0)
(-0.140456 0.000486473 0)
(-0.140561 0.000328054 0)
(-0.140618 0.000166848 0)
(-0.140627 2.44594e-06 0)
(-0.140588 -0.000165556 0)
(-0.140498 -0.000337556 0)
(-0.140356 -0.000513944 0)
(-0.140162 -0.000695099 0)
(-0.139914 -0.000881391 0)
(-0.139611 -0.00107317 0)
(-0.13925 -0.00127078 0)
(-0.138831 -0.00147452 0)
(-0.138352 -0.0016847 0)
(-0.13781 -0.00190159 0)
(-0.137204 -0.00212542 0)
(-0.136532 -0.0023564 0)
(-0.135792 -0.0025947 0)
(-0.134981 -0.00284047 0)
(-0.134099 -0.00309378 0)
(-0.133142 -0.00335469 0)
(-0.132109 -0.00362318 0)
(-0.130998 -0.0038992 0)
(-0.129806 -0.00418263 0)
(-0.128532 -0.00447328 0)
(-0.127174 -0.0047709 0)
(-0.12573 -0.00507516 0)
(-0.124197 -0.00538568 0)
(-0.122576 -0.00570195 0)
(-0.120863 -0.00602342 0)
(-0.119059 -0.00634942 0)
(-0.117161 -0.00667921 0)
(-0.115169 -0.00701194 0)
(-0.113083 -0.00734665 0)
(-0.110902 -0.0076823 0)
(-0.108626 -0.00801772 0)
(-0.106256 -0.00835164 0)
(-0.103791 -0.0086827 0)
(-0.101235 -0.00900939 0)
(-0.0985867 -0.00933013 0)
(-0.0958499 -0.00964321 0)
(-0.0930265 -0.00994679 0)
(-0.0901197 -0.010239 0)
(-0.087133 -0.0105177 0)
(-0.0840706 -0.0107809 0)
(-0.0809371 -0.0110264 0)
(-0.077738 -0.0112518 0)
(-0.0744792 -0.0114548 0)
(-0.0711673 -0.0116329 0)
(-0.0678098 -0.0117837 0)