/*--------------------------------*- C++ -*----------------------------------*\
  =========                 |
  \\      /  F ield         | OpenFOAM: The Open Source CFD Toolbox
   \\    /   O peration     | Website:  https://openfoam.org
    \\  /    A nd           | Version:  7
     \\/     M anipulation  |
\*---------------------------------------------------------------------------*/
FoamFile
{
    version     2.0;
    format      ascii;
    class       surfaceScalarField;
    location    "0.5";
    object      phi;
}
// * * * * * * * * * * * * * * * * * * * * * * * * * * * * * * * * * * * * * //

dimensions      [0 3 -1 0 0 0 0];

internalField   nonuniform List<scalar> 
101920
(
-1.98124e-13
9.01399e-14
-5.41934e-13
3.43676e-13
-9.50518e-13
4.11981e-13
-1.29486e-12
3.4556e-13
-1.4984e-12
2.03533e-13
-1.5178e-12
1.93332e-14
-1.32938e-12
-1.87611e-13
-9.23887e-13
-4.04722e-13
-2.99289e-13
-6.23694e-13
5.42557e-13
-8.39989e-13
1.59535e-12
-1.05116e-12
2.85029e-12
-1.25489e-12
4.29757e-12
-1.44903e-12
5.92704e-12
-1.63186e-12
7.72899e-12
-1.80304e-12
9.69316e-12
-1.96343e-12
1.18084e-11
-2.11392e-12
1.40623e-11
-2.25402e-12
1.6444e-11
-2.38278e-12
1.89441e-11
-2.50049e-12
2.15526e-11
-2.60807e-12
2.4259e-11
-2.70608e-12
2.70535e-11
-2.79476e-12
2.99264e-11
-2.8739e-12
3.28687e-11
-2.94337e-12
3.58725e-11
-3.00383e-12
3.89292e-11
-3.05607e-12
4.20306e-11
-3.10067e-12
4.51689e-11
-3.13796e-12
4.83362e-11
-3.16792e-12
5.15257e-11
-3.19048e-12
5.47304e-11
-3.20576e-12
5.79442e-11
-3.21418e-12
6.11614e-11
-3.21665e-12
6.43757e-11
-3.21389e-12
6.75807e-11
-3.20575e-12
7.07711e-11
-3.19176e-12
7.39423e-11
-3.17202e-12
7.70896e-11
-3.14722e-12
8.02084e-11
-3.118e-12
8.32941e-11
-3.08472e-12
8.63424e-11
-3.04764e-12
8.93493e-11
-3.00683e-12
9.23106e-11
-2.96204e-12
9.5223e-11
-2.91312e-12
9.80835e-11
-2.86043e-12
1.00889e-10
-2.80471e-12
1.03637e-10
-2.74638e-12
1.06323e-10
-2.68551e-12
1.08946e-10
-2.62207e-12
1.11503e-10
-2.55614e-12
1.1399e-10
-2.48771e-12
1.16407e-10
-2.4168e-12
1.18752e-10
-2.34371e-12
1.21021e-10
-2.26885e-12
1.23215e-10
-2.1924e-12
1.25329e-10
-2.11428e-12
1.27364e-10
-2.03443e-12
1.29318e-10
-1.95302e-12
1.31189e-10
-1.87027e-12
1.32976e-10
-1.78641e-12
1.34678e-10
-1.70149e-12
1.36294e-10
-1.61547e-12
1.37823e-10
-1.52827e-12
1.39263e-10
-1.44001e-12
1.40615e-10
-1.35098e-12
1.41877e-10
-1.26134e-12
1.43049e-10
-1.17107e-12
1.44129e-10
-1.08008e-12
1.45118e-10
-9.88447e-13
1.46015e-10
-8.9635e-13
1.46819e-10
-8.03755e-13
1.4753e-10
-7.10569e-13
1.48148e-10
-6.16966e-13
1.48672e-10
-5.23276e-13
1.49101e-10
-4.29516e-13
1.49437e-10
-3.35375e-13
1.49678e-10
-2.40768e-13
1.49824e-10
-1.46049e-13
1.49876e-10
-5.14931e-14
1.49833e-10
4.30751e-14
1.49696e-10
1.37859e-13
1.49464e-10
2.3264e-13
1.49137e-10
3.27103e-13
1.48716e-10
4.21338e-13
1.482e-10
5.15604e-13
1.47591e-10
6.09804e-13
1.46888e-10
7.03617e-13
1.46091e-10
7.96984e-13
1.45201e-10
8.90036e-13
1.44219e-10
9.8267e-13
1.43145e-10
1.07465e-12
1.41979e-10
1.16603e-12
1.40722e-10
1.25706e-12
1.39375e-10
1.34757e-12
1.37939e-10
1.43711e-12
1.36414e-10
1.52561e-12
1.348e-10
1.61336e-12
1.331e-10
1.70039e-12
1.31315e-10
1.78619e-12
1.29445e-10
1.87041e-12
1.27492e-10
1.95336e-12
1.25456e-10
2.0354e-12
1.2334e-10
2.11622e-12
1.21146e-10
2.19518e-12
1.18874e-10
2.27217e-12
1.16527e-10
2.34749e-12
1.14106e-10
2.4211e-12
1.11614e-10
2.4924e-12
1.09053e-10
2.56108e-12
1.06425e-10
2.62753e-12
1.03733e-10
2.69203e-12
1.00979e-10
2.75409e-12
9.81675e-11
2.81295e-12
9.53001e-11
2.86841e-12
9.23799e-11
2.92059e-12
8.94109e-11
2.96935e-12
8.63964e-11
3.01454e-12
8.334e-11
3.05623e-12
8.02462e-11
3.09415e-12
7.71196e-11
3.1275e-12
7.39639e-11
3.15616e-12
7.07831e-11
3.18082e-12
6.75832e-11
3.20114e-12
6.43708e-11
3.21517e-12
6.11503e-11
3.22189e-12
5.79248e-11
3.22312e-12
5.47007e-11
3.22089e-12
5.14874e-11
3.21383e-12
4.82924e-11
3.19869e-12
4.51199e-11
3.17475e-12
4.19753e-11
3.14389e-12
3.88678e-11
3.10672e-12
3.58072e-11
3.06141e-12
3.28003e-11
3.00687e-12
2.98533e-11
2.94448e-12
2.69759e-11
2.8754e-12
2.41795e-11
2.79789e-12
2.1474e-11
2.70913e-12
1.88669e-11
2.60866e-12
1.63665e-11
2.49838e-12
1.39842e-11
2.37947e-12
1.17322e-11
2.25103e-12
9.62128e-12
2.11158e-12
7.66137e-12
1.96062e-12
5.86306e-12
1.79845e-12
4.23759e-12
1.6253e-12
2.79543e-12
1.44154e-12
1.54626e-12
1.24814e-12
5.00182e-13
1.04581e-12
-3.33989e-13
8.34818e-13
-9.5167e-13
6.17287e-13
-1.35135e-12
3.97908e-13
-1.53283e-12
1.81233e-13
-1.50345e-12
-2.80168e-14
-1.28993e-12
-2.16601e-13
-9.43266e-13
-3.55117e-13
-5.32399e-13
-4.07637e-13
-1.64202e-13
-3.34496e-13
-1.20126e-13
-3.97268e-13
4.88319e-13
-1.07054e-12
1.01488e-12
-1.739e-12
1.08344e-12
-2.1967e-12
8.06653e-13
-2.29093e-12
3.00307e-13
-1.92014e-12
-3.50323e-13
-1.02068e-12
-1.08601e-12
4.41469e-13
-1.86622e-12
2.47908e-12
-2.66237e-12
5.09321e-12
-3.45506e-12
8.27484e-12
-4.23185e-12
1.20074e-11
-4.98479e-12
1.62694e-11
-5.70809e-12
2.10351e-11
-6.39699e-12
2.62781e-11
-7.04781e-12
3.19713e-11
-7.65878e-12
3.80877e-11
-8.23025e-12
4.45975e-11
-8.76286e-12
5.14705e-11
-9.25612e-12
5.86786e-11
-9.70981e-12
6.61944e-11
-1.01247e-11
7.39904e-11
-1.05021e-11
8.20401e-11
-1.08433e-11
9.03167e-11
-1.11496e-11
9.87942e-11
-1.14213e-11
1.07449e-10
-1.16595e-11
1.16256e-10
-1.18652e-11
1.25195e-10
-1.20398e-11
1.34242e-10
-1.21848e-11
1.43376e-10
-1.23017e-11
1.52577e-10
-1.23914e-11
1.61826e-10
-1.24548e-11
1.71102e-10
-1.24924e-11
1.80389e-10
-1.25054e-11
1.89671e-10
-1.24954e-11
1.9893e-10
-1.24642e-11
2.08151e-10
-1.24123e-11
2.17318e-10
-1.23401e-11
2.26419e-10
-1.22485e-11
2.35438e-10
-1.21383e-11
2.44364e-10
-1.20108e-11
2.53184e-10
-1.1867e-11
2.61887e-10
-1.1708e-11
2.70462e-10
-1.15347e-11
2.78897e-10
-1.13476e-11
2.87184e-10
-1.11469e-11
2.95312e-10
-1.09333e-11
3.03274e-10
-1.07078e-11
3.11061e-10
-1.04714e-11
3.18665e-10
-1.02246e-11
3.26078e-10
-9.96805e-12
3.33295e-10
-9.70243e-12
3.40307e-10
-9.42803e-12
3.47109e-10
-9.14519e-12
3.53696e-10
-8.85457e-12
3.60062e-10
-8.55691e-12
3.66201e-10
-8.25273e-12
3.7211e-10
-7.94232e-12
3.77784e-10
-7.62597e-12
3.83219e-10
-7.30406e-12
3.8841e-10
-6.97709e-12
3.93356e-10
-6.64556e-12
3.98051e-10
-6.30986e-12
4.02494e-10
-5.97018e-12
4.06681e-10
-5.62665e-12
4.1061e-10
-5.27958e-12
4.14279e-10
-4.92945e-12
4.17686e-10
-4.57662e-12
4.20827e-10
-4.2212e-12
4.23703e-10
-3.86334e-12
4.26311e-10
-3.5034e-12
4.28649e-10
-3.1417e-12
4.30717e-10
-2.77824e-12
4.32513e-10
-2.41305e-12
4.34037e-10
-2.04652e-12
4.35287e-10
-1.67919e-12
4.36264e-10
-1.31115e-12
4.36965e-10
-9.42188e-13
4.37391e-10
-5.72421e-13
4.37542e-10
-2.02388e-13
4.37418e-10
1.67593e-13
4.37019e-10
5.37654e-13
4.36343e-10
9.07789e-13
4.35394e-10
1.27753e-12
4.34169e-10
1.64647e-12
4.32671e-10
2.01463e-12
4.30899e-10
2.38207e-12
4.28854e-10
2.74848e-12
4.26538e-10
3.11343e-12
4.23952e-10
3.47687e-12
4.21096e-10
3.83872e-12
4.17973e-10
4.19853e-12
4.14585e-10
4.55586e-12
4.10932e-10
4.9107e-12
4.07016e-10
5.26309e-12
4.02841e-10
5.61255e-12
3.9841e-10
5.9584e-12
3.93723e-10
6.30044e-12
3.88785e-10
6.63882e-12
3.83598e-10
6.97322e-12
3.78167e-10
7.30273e-12
3.72495e-10
7.62673e-12
3.66586e-10
7.94532e-12
3.60443e-10
8.2585e-12
3.54073e-10
8.56554e-12
3.47481e-10
8.86553e-12
3.40671e-10
9.15814e-12
3.33648e-10
9.44337e-12
3.2642e-10
9.72059e-12
3.18994e-10
9.98863e-12
3.11377e-10
1.02468e-11
3.03574e-10
1.0495e-11
2.95594e-10
1.07332e-11
2.87447e-10
1.09603e-11
2.7914e-10
1.11753e-11
2.70684e-10
1.13776e-11
2.62088e-10
1.15665e-11
2.53364e-10
1.17409e-11
2.4452e-10
1.19004e-11
2.3557e-10
1.20445e-11
2.26527e-10
1.21721e-11
2.17404e-10
1.22814e-11
2.08212e-10
1.23722e-11
1.98965e-10
1.24452e-11
1.89682e-10
1.24991e-11
1.80379e-10
1.25303e-11
1.7107e-10
1.25368e-11
1.61771e-10
1.25201e-11
1.52499e-10
1.24815e-11
1.43277e-10
1.24186e-11
1.34127e-10
1.23278e-11
1.25063e-10
1.22083e-11
1.16108e-10
1.2061e-11
1.07286e-10
1.18845e-11
9.86208e-11
1.16757e-11
9.01348e-11
1.1433e-11
8.18497e-11
1.11576e-11
7.37924e-11
1.08501e-11
6.59922e-11
1.0508e-11
5.84761e-11
1.01277e-11
5.12693e-11
9.70819e-12
4.43986e-11
9.25027e-12
3.78935e-11
8.75439e-12
3.1784e-11
8.21969e-12
2.60986e-11
7.6453e-12
2.08651e-11
7.03138e-12
1.61116e-11
6.37876e-12
1.18648e-11
5.68873e-12
8.14775e-12
4.96438e-12
4.98112e-12
4.21061e-12
2.38336e-12
3.43278e-12
3.64314e-13
2.63832e-12
-1.07995e-12
1.8413e-12
-1.96485e-12
1.06304e-12
-2.31764e-12
3.28861e-13
-2.19489e-12
-3.27873e-13
-1.71198e-12
-8.47376e-13
-1.04397e-12
-1.12963e-12
-4.0483e-13
-1.04982e-12
-4.98985e-13
-4.33393e-13
9.2524e-13
-1.12045e-12
1.69962e-12
-1.68468e-12
1.64843e-12
-1.86968e-12
9.93371e-13
-1.4836e-12
-8.30598e-14
-3.92522e-13
-1.4394e-12
1.49328e-12
-2.96978e-12
4.22747e-12
-4.59793e-12
7.83464e-12
-6.2687e-12
1.23201e-11
-7.94174e-12
1.76747e-11
-9.58871e-12
2.38786e-11
-1.11899e-11
3.09039e-11
-1.27324e-11
3.87158e-11
-1.4207e-11
4.72752e-11
-1.56067e-11
5.65405e-11
-1.69259e-11
6.64712e-11
-1.81622e-11
7.70243e-11
-1.93155e-11
8.81548e-11
-2.03861e-11
9.98185e-11
-2.13739e-11
1.11972e-10
-2.22797e-11
1.24574e-10
-2.31046e-11
1.37581e-10
-2.38509e-11
1.50953e-10
-2.4521e-11
1.6465e-10
-2.51173e-11
1.78632e-10
-2.56416e-11
1.92863e-10
-2.60961e-11
2.07304e-10
-2.6483e-11
2.21923e-10
-2.68047e-11
2.36685e-10
-2.70639e-11
2.51557e-10
-2.72635e-11
2.66509e-10
-2.74059e-11
2.81509e-10
-2.74932e-11
2.96528e-10
-2.7527e-11
3.11541e-10
-2.75095e-11
3.2652e-10
-2.74436e-11
3.41441e-10
-2.7332e-11
3.56278e-10
-2.71765e-11
3.71009e-10
-2.6979e-11
3.85611e-10
-2.67413e-11
4.00065e-10
-2.64652e-11
4.1435e-10
-2.61525e-11
4.28447e-10
-2.58052e-11
4.4234e-10
-2.54256e-11
4.56009e-10
-2.50155e-11
4.6944e-10
-2.45762e-11
4.82616e-10
-2.41091e-11
4.95525e-10
-2.36155e-11
5.08151e-10
-2.30972e-11
5.20483e-10
-2.25555e-11
5.32508e-10
-2.19917e-11
5.44214e-10
-2.14076e-11
5.55592e-10
-2.08041e-11
5.6663e-10
-2.01825e-11
5.77319e-10
-1.95434e-11
5.87652e-10
-1.88883e-11
5.97619e-10
-1.82183e-11
6.07212e-10
-1.75344e-11
6.16425e-10
-1.68375e-11
6.2525e-10
-1.61284e-11
6.33682e-10
-1.54079e-11
6.41714e-10
-1.46768e-11
6.49341e-10
-1.3936e-11
6.56559e-10
-1.31864e-11
6.63362e-10
-1.24286e-11
6.69746e-10
-1.1663e-11
6.75707e-10
-1.08902e-11
6.81243e-10
-1.01112e-11
6.86349e-10
-9.32634e-12
6.91022e-10
-8.53614e-12
6.95261e-10
-7.74107e-12
6.99062e-10
-6.94185e-12
7.02423e-10
-6.13903e-12
7.05343e-10
-5.33276e-12
7.0782e-10
-4.52329e-12
7.09853e-10
-3.71135e-12
7.1144e-10
-2.89768e-12
7.12581e-10
-2.08253e-12
7.13275e-10
-1.2659e-12
7.13521e-10
-4.48288e-13
7.1332e-10
3.6954e-13
7.12671e-10
1.18718e-12
7.11574e-10
2.00459e-12
7.1003e-10
2.82144e-12
7.08041e-10
3.63696e-12
7.05606e-10
4.4506e-12
7.02726e-10
5.26219e-12
6.99403e-10
6.07143e-12
6.9564e-10
6.87763e-12
6.91437e-10
7.68025e-12
6.86797e-10
8.47905e-12
6.81723e-10
9.27359e-12
6.76217e-10
1.0063e-11
6.70282e-10
1.08465e-11
6.63922e-10
1.16239e-11
6.5714e-10
1.23948e-11
6.49941e-10
1.31582e-11
6.42329e-10
1.39131e-11
6.3431e-10
1.4659e-11
6.25887e-10
1.53956e-11
6.17068e-10
1.61222e-11
6.07859e-10
1.68371e-11
5.98266e-10
1.75394e-11
5.88296e-10
1.82288e-11
5.77957e-10
1.89045e-11
5.67258e-10
1.95651e-11
5.56208e-10
2.02092e-11
5.44816e-10
2.0836e-11
5.33091e-10
2.14448e-11
5.21046e-10
2.20343e-11
5.08691e-10
2.26025e-11
4.9604e-10
2.31479e-11
4.83104e-10
2.36698e-11
4.69897e-10
2.4167e-11
4.56435e-10
2.46378e-11
4.42733e-10
2.50804e-11
4.28806e-10
2.54936e-11
4.14673e-10
2.58752e-11
4.00351e-10
2.62234e-11
3.85859e-10
2.6537e-11
3.71217e-10
2.68145e-11
3.56449e-10
2.7053e-11
3.41574e-10
2.72495e-11
3.26615e-10
2.74035e-11
3.11596e-10
2.75149e-11
2.96544e-10
2.75809e-11
2.8149e-10
2.75964e-11
2.66456e-10
2.75583e-11
2.5147e-10
2.74671e-11
2.36564e-10
2.73223e-11
2.21772e-10
2.71197e-11
2.07127e-10
2.68551e-11
1.9266e-10
2.65275e-11
1.78405e-10
2.61364e-11
1.64403e-10
2.56784e-11
1.50692e-10
2.51486e-11
1.37308e-10
2.45445e-11
1.24289e-10
2.38666e-11
1.11678e-10
2.31143e-11
9.95202e-11
2.22843e-11
8.78572e-11
2.13728e-11
7.67307e-11
2.03783e-11
6.61839e-11
1.93011e-11
5.62614e-11
1.81412e-11
4.70071e-11
1.68988e-11
3.84627e-11
1.55748e-11
3.06689e-11
1.41718e-11
2.36646e-11
1.26936e-11
1.74831e-11
1.11463e-11
1.21506e-11
9.541e-12
7.68835e-12
7.8926e-12
4.10831e-12
6.21944e-12
1.40285e-12
4.54816e-12
-4.60412e-13
2.92136e-12
-1.53402e-12
1.39794e-12
-1.89409e-12
4.95503e-14
-1.67414e-12
-1.02977e-12
-1.09226e-12
-1.6957e-12
-4.40052e-13
-1.7454e-12
-9.3839e-13
-3.56247e-13
1.28579e-12
-8.31772e-13
2.17504e-12
-1.02452e-12
1.84191e-12
-6.53963e-13
6.23398e-13
4.89685e-13
-1.22566e-12
2.55722e-12
-3.50578e-12
5.65177e-12
-6.06344e-12
9.8394e-12
-8.78351e-12
1.51537e-11
-1.15805e-11
2.16043e-11
-1.4391e-11
2.91827e-11
-1.71676e-11
3.78665e-11
-1.98757e-11
4.76235e-11
-2.24909e-11
5.84133e-11
-2.49964e-11
7.01888e-11
-2.73807e-11
8.28976e-11
-2.96349e-11
9.64865e-11
-3.17526e-11
1.10902e-10
-3.37314e-11
1.26087e-10
-3.55707e-11
1.41984e-10
-3.7271e-11
1.58538e-10
-3.88332e-11
1.75692e-10
-4.02591e-11
1.93391e-10
-4.15508e-11
2.11581e-10
-4.27117e-11
2.3021e-10
-4.37456e-11
2.49225e-10
-4.46562e-11
2.68576e-10
-4.54473e-11
2.88216e-10
-4.61226e-11
3.08096e-10
-4.66857e-11
3.28171e-10
-4.71407e-11
3.48398e-10
-4.74915e-11
3.68735e-10
-4.77428e-11
3.89142e-10
-4.78988e-11
4.09578e-10
-4.79632e-11
4.30005e-10
-4.7939e-11
4.50391e-10
-4.78301e-11
4.70699e-10
-4.76406e-11
4.90897e-10
-4.73743e-11
5.10953e-10
-4.70348e-11
5.30838e-10
-4.66255e-11
5.50523e-10
-4.61497e-11
5.69981e-10
-4.56105e-11
5.89186e-10
-4.50107e-11
6.08114e-10
-4.43535e-11
6.26742e-10
-4.36422e-11
6.45047e-10
-4.288e-11
6.63008e-10
-4.20692e-11
6.80606e-10
-4.12124e-11
6.97822e-10
-4.03121e-11
7.14638e-10
-3.93708e-11
7.31038e-10
-3.83907e-11
7.47006e-10
-3.73742e-11
7.62526e-10
-3.63237e-11
7.77586e-10
-3.52412e-11
7.92172e-10
-3.41285e-11
8.06272e-10
-3.29874e-11
8.19875e-10
-3.18198e-11
8.32969e-10
-3.06275e-11
8.45545e-10
-2.94123e-11
8.57593e-10
-2.81756e-11
8.69105e-10
-2.69189e-11
8.80072e-10
-2.56434e-11
8.90488e-10
-2.43506e-11
9.00344e-10
-2.3042e-11
9.09636e-10
-2.17188e-11
9.18355e-10
-2.0382e-11
9.26499e-10
-1.90327e-11
9.3406e-10
-1.7672e-11
9.41036e-10
-1.6301e-11
9.4742e-10
-1.49206e-11
9.53211e-10
-1.35315e-11
9.58405e-10
-1.21348e-11
9.62998e-10
-1.07315e-11
9.66989e-10
-9.32251e-12
9.70373e-10
-7.9082e-12
9.73151e-10
-6.48923e-12
9.75321e-10
-5.06671e-12
9.76881e-10
-3.6416e-12
9.77829e-10
-2.21436e-12
9.78167e-10
-7.85407e-13
9.77892e-10
6.44335e-13
9.77007e-10
2.07382e-12
9.75509e-10
3.50247e-12
9.73401e-10
4.92991e-12
9.70682e-10
6.35533e-12
9.67356e-10
7.77767e-12
9.63423e-10
9.19617e-12
9.58884e-10
1.06103e-11
9.53743e-10
1.20192e-11
9.48003e-10
1.34218e-11
9.41665e-10
1.48172e-11
9.34734e-10
1.62049e-11
9.27213e-10
1.75839e-11
9.19108e-10
1.89527e-11
9.10423e-10
2.03103e-11
9.01162e-10
2.1656e-11
8.91332e-10
2.29887e-11
8.80939e-10
2.43069e-11
8.6999e-10
2.56089e-11
8.58493e-10
2.68938e-11
8.46454e-10
2.81606e-11
8.33884e-10
2.94077e-11
8.20791e-10
3.0633e-11
8.07186e-10
3.18348e-11
7.93078e-10
3.30121e-11
7.78481e-10
3.41631e-11
7.63406e-10
3.52854e-11
7.47866e-10
3.63768e-11
7.31874e-10
3.74359e-11
7.15447e-10
3.84609e-11
6.98601e-10
3.94493e-11
6.81351e-10
4.03983e-11
6.63717e-10
4.13055e-11
6.45716e-10
4.21688e-11
6.27369e-10
4.29856e-11
6.08697e-10
4.37531e-11
5.89722e-10
4.44687e-11
5.70468e-10
4.51296e-11
5.50961e-10
4.57322e-11
5.31225e-10
4.62735e-11
5.11287e-10
4.67514e-11
4.91178e-10
4.71628e-11
4.70929e-10
4.75025e-11
4.5057e-10
4.77661e-11
4.30132e-10
4.7952e-11
4.0965e-10
4.80589e-11
3.89164e-10
4.80819e-11
3.68712e-10
4.80142e-11
3.4833e-10
4.7852e-11
3.28057e-10
4.7594e-11
3.07939e-10
4.7237e-11
2.88022e-10
4.67748e-11
2.68349e-10
4.62024e-11
2.48965e-10
4.5518e-11
2.2992e-10
4.47192e-11
2.11268e-10
4.38008e-11
1.9306e-10
4.27565e-11
1.75347e-10
4.15829e-11
1.5818e-10
4.0279e-11
1.41618e-10
3.88432e-11
1.25719e-10
3.72716e-11
1.10536e-10
3.55612e-11
9.61274e-11
3.37107e-11
8.25476e-11
3.17208e-11
6.98528e-11
2.95932e-11
5.80961e-11
2.73306e-11
4.73273e-11
2.4939e-11
3.7594e-11
2.24266e-11
2.89376e-11
1.98044e-11
2.13888e-11
1.70903e-11
1.49677e-11
1.43109e-11
9.6849e-12
1.15008e-11
5.53274e-12
8.70348e-12
2.47138e-12
5.98139e-12
4.26939e-13
3.42631e-12
-6.987e-13
1.15881e-12
-1.04199e-12
-6.75029e-13
-8.19035e-13
-1.88673e-12
-3.55437e-13
-2.21491e-12
-1.30075e-12
-2.10594e-13
1.49903e-12
-3.19929e-13
2.2852e-12
5.52766e-14
1.46873e-12
1.194e-12
-5.13984e-13
3.30751e-12
-3.33819e-12
6.55098e-12
-6.74841e-12
1.10323e-11
-1.05448e-11
1.68223e-11
-1.45732e-11
2.39594e-11
-1.87167e-11
3.24563e-11
-2.28863e-11
4.23053e-11
-2.70152e-11
5.34818e-11
-3.10525e-11
6.59499e-11
-3.49605e-11
7.96641e-11
-3.8712e-11
9.45725e-11
-4.22884e-11
1.10615e-10
-4.56766e-11
1.27729e-10
-4.88668e-11
1.45849e-10
-5.1853e-11
1.64911e-10
-5.46328e-11
1.84845e-10
-5.72058e-11
2.05586e-10
-5.95732e-11
2.27065e-10
-6.17375e-11
2.49215e-10
-6.37014e-11
2.71972e-10
-6.54689e-11
2.9527e-10
-6.70446e-11
3.19048e-10
-6.84339e-11
3.43243e-10
-6.96424e-11
3.67797e-10
-7.06757e-11
3.9265e-10
-7.15395e-11
4.17748e-10
-7.22394e-11
4.43036e-10
-7.2781e-11
4.68462e-10
-7.31702e-11
4.93977e-10
-7.34134e-11
5.19531e-10
-7.3517e-11
5.45078e-10
-7.34862e-11
5.70573e-10
-7.33262e-11
5.95975e-10
-7.30428e-11
6.21241e-10
-7.26414e-11
6.46334e-10
-7.21275e-11
6.71215e-10
-7.15063e-11
6.95849e-10
-7.0783e-11
7.20202e-10
-6.99627e-11
7.44242e-10
-6.90498e-11
7.67937e-10
-6.80486e-11
7.91259e-10
-6.69638e-11
8.1418e-10
-6.58001e-11
8.36673e-10
-6.45615e-11
8.58714e-10
-6.32521e-11
8.80279e-10
-6.18757e-11
9.01345e-10
-6.04362e-11
9.21892e-10
-5.8937e-11
9.419e-10
-5.73813e-11
9.6135e-10
-5.57727e-11
9.80225e-10
-5.41146e-11
9.98507e-10
-5.24098e-11
1.01618e-09
-5.06614e-11
1.03323e-09
-4.88717e-11
1.04965e-09
-4.70437e-11
1.06542e-09
-4.51799e-11
1.08053e-09
-4.32828e-11
1.09497e-09
-4.13547e-11
1.10872e-09
-3.93977e-11
1.12178e-09
-3.74138e-11
1.13415e-09
-3.54049e-11
1.1458e-09
-3.33732e-11
1.15674e-09
-3.13206e-11
1.16696e-09
-2.92485e-11
1.17645e-09
-2.71586e-11
1.1852e-09
-2.50525e-11
1.19321e-09
-2.29319e-11
1.20048e-09
-2.07981e-11
1.207e-09
-1.86521e-11
1.21276e-09
-1.64956e-11
1.21777e-09
-1.43301e-11
1.22202e-09
-1.21567e-11
1.22551e-09
-9.9763e-12
1.22823e-09
-7.79002e-12
1.23019e-09
-5.59939e-12
1.23138e-09
-3.40566e-12
1.2318e-09
-1.20961e-12
1.23146e-09
9.87828e-13
1.23035e-09
3.18522e-12
1.22847e-09
5.38122e-12
1.22583e-09
7.57495e-12
1.22242e-09
9.76549e-12
1.21824e-09
1.19515e-11
1.21331e-09
1.41315e-11
1.20762e-09
1.63045e-11
1.20117e-09
1.84694e-11
1.19396e-09
2.06247e-11
1.18601e-09
2.27687e-11
1.17732e-09
2.49002e-11
1.16788e-09
2.70182e-11
1.15772e-09
2.91207e-11
1.14682e-09
3.12058e-11
1.13521e-09
3.32719e-11
1.12288e-09
3.53177e-11
1.10984e-09
3.73413e-11
1.09611e-09
3.93401e-11
1.0817e-09
4.1312e-11
1.0666e-09
4.32553e-11
1.05084e-09
4.5168e-11
1.03443e-09
4.70474e-11
1.01737e-09
4.88905e-11
9.99692e-10
5.0695e-11
9.81396e-10
5.24586e-11
9.62504e-10
5.41784e-11
9.43031e-10
5.58507e-11
9.22995e-10
5.74725e-11
9.02415e-10
5.90409e-11
8.81311e-10
6.05529e-11
8.59706e-10
6.20046e-11
8.3762e-10
6.33919e-11
8.15078e-10
6.47114e-11
7.92105e-10
6.59592e-11
7.68728e-10
6.7131e-11
7.44975e-10
6.82225e-11
7.20875e-10
6.92299e-11
6.9646e-10
7.01483e-11
6.71764e-10
7.09722e-11
6.46818e-10
7.16972e-11
6.21659e-10
7.23201e-11
5.96326e-10
7.28355e-11
5.70861e-10
7.32359e-11
5.45301e-10
7.35152e-11
5.19689e-10
7.36702e-11
4.94071e-10
7.36974e-11
4.68496e-10
7.35893e-11
4.43013e-10
7.33379e-11
4.17669e-10
7.29384e-11
3.92517e-10
7.23872e-11
3.67614e-10
7.1678e-11
3.43018e-10
7.08026e-11
3.18783e-10
6.97549e-11
2.94968e-10
6.85317e-11
2.71636e-10
6.71288e-11
2.48853e-10
6.55393e-11
2.26683e-10
6.37562e-11
2.05188e-10
6.17752e-11
1.84436e-10
5.95942e-11
1.64495e-10
5.72108e-11
1.45433e-10
5.46222e-11
1.27318e-10
5.18266e-11
1.10214e-10
4.88249e-11
9.41865e-11
4.56204e-11
7.92986e-11
4.22187e-11
6.56068e-11
3.86294e-11
5.3164e-11
3.48671e-11
4.20177e-11
3.09509e-11
3.22039e-11
2.69065e-11
2.37422e-11
2.27721e-11
1.66386e-11
1.8601e-11
1.08844e-11
1.44597e-11
6.44285e-12
1.04329e-11
3.23418e-12
6.63745e-12
1.14158e-12
3.23548e-12
2.03268e-14
4.31945e-13
-3.267e-13
-1.52596e-12
-2.09271e-13
-2.32286e-12
-1.51288e-12
-2.47611e-14
1.52523e-12
3.3307e-13
1.92792e-12
1.41312e-12
3.90545e-13
3.47462e-12
-2.57305e-12
6.71626e-12
-6.57824e-12
1.12874e-11
-1.13183e-11
1.72935e-11
-1.65504e-11
2.48042e-11
-2.20841e-11
3.3858e-11
-2.7771e-11
4.44677e-11
-3.34963e-11
5.66256e-11
-3.91722e-11
7.03056e-11
-4.47316e-11
8.54683e-11
-5.01232e-11
1.02063e-10
-5.53084e-11
1.20034e-10
-6.02592e-11
1.39315e-10
-6.49568e-11
1.59835e-10
-6.93872e-11
1.81523e-10
-7.35413e-11
2.04304e-10
-7.74139e-11
2.28101e-10
-8.10031e-11
2.52837e-10
-8.43093e-11
2.78435e-10
-8.73353e-11
3.04819e-10
-9.00848e-11
3.31912e-10
-9.25626e-11
3.59642e-10
-9.47744e-11
3.87934e-10
-9.67267e-11
4.16717e-10
-9.84265e-11
4.45923e-10
-9.98814e-11
4.75483e-10
-1.01099e-10
5.05333e-10
-1.02088e-10
5.35407e-10
-1.02856e-10
5.65646e-10
-1.0341e-10
5.9599e-10
-1.03759e-10
6.26382e-10
-1.0391e-10
6.56769e-10
-1.03872e-10
6.87095e-10
-1.03653e-10
7.17312e-10
-1.0326e-10
7.47371e-10
-1.02701e-10
7.77226e-10
-1.01982e-10
8.06831e-10
-1.01112e-10
8.36146e-10
-1.00097e-10
8.65129e-10
-9.89448e-11
8.93742e-10
-9.76616e-11
9.21948e-10
-9.62537e-11
9.49712e-10
-9.47274e-11
9.77001e-10
-9.30888e-11
1.00378e-09
-9.13439e-11
1.03003e-09
-8.94982e-11
1.05571e-09
-8.75573e-11
1.08081e-09
-8.55266e-11
1.10528e-09
-8.34112e-11
1.12912e-09
-8.12157e-11
1.15229e-09
-7.89447e-11
1.17478e-09
-7.66028e-11
1.19656e-09
-7.41944e-11
1.21763e-09
-7.17237e-11
1.23795e-09
-6.91946e-11
1.25752e-09
-6.66106e-11
1.27631e-09
-6.39753e-11
1.29433e-09
-6.12924e-11
1.31154e-09
-5.8565e-11
1.32794e-09
-5.57964e-11
1.34351e-09
-5.29895e-11
1.35826e-09
-5.01469e-11
1.37215e-09
-4.72714e-11
1.3852e-09
-4.43657e-11
1.39739e-09
-4.14324e-11
1.4087e-09
-3.84735e-11
1.41914e-09
-3.54913e-11
1.4287e-09
-3.24882e-11
1.43737e-09
-2.94662e-11
1.44514e-09
-2.64271e-11
1.45202e-09
-2.33726e-11
1.45799e-09
-2.03048e-11
1.46306e-09
-1.72258e-11
1.46722e-09
-1.41372e-11
1.47047e-09
-1.10401e-11
1.47281e-09
-7.93647e-12
1.47424e-09
-4.82823e-12
1.47474e-09
-1.71698e-12
1.47434e-09
1.39604e-12
1.47301e-09
4.50925e-12
1.47077e-09
7.62072e-12
1.46762e-09
1.07287e-11
1.46355e-09
1.38319e-11
1.45858e-09
1.69286e-11
1.45269e-09
2.00169e-11
1.4459e-09
2.3095e-11
1.43821e-09
2.61613e-11
1.42962e-09
2.92138e-11
1.42014e-09
3.22505e-11
1.40977e-09
3.52691e-11
1.39852e-09
3.82678e-11
1.3864e-09
4.12446e-11
1.37341e-09
4.41967e-11
1.35956e-09
4.71215e-11
1.34486e-09
5.00167e-11
1.32932e-09
5.288e-11
1.31296e-09
5.57085e-11
1.29577e-09
5.84987e-11
1.27778e-09
6.12475e-11
1.259e-09
6.39522e-11
1.23943e-09
6.66095e-11
1.21911e-09
6.92155e-11
1.19804e-09
7.17661e-11
1.17624e-09
7.42579e-11
1.15373e-09
7.66873e-11
1.13053e-09
7.90497e-11
1.10667e-09
8.13402e-11
1.08215e-09
8.35542e-11
1.05702e-09
8.56876e-11
1.03129e-09
8.77354e-11
1.00499e-09
8.96919e-11
9.78148e-10
9.1552e-11
9.50798e-10
9.33102e-11
9.22969e-10
9.49606e-11
8.94695e-10
9.64971e-11
8.66011e-10
9.79139e-11
8.36954e-10
9.92052e-11
8.07565e-10
1.00364e-10
7.77884e-10
1.01381e-10
7.47952e-10
1.02252e-10
7.17813e-10
1.02972e-10
6.87517e-10
1.03532e-10
6.57114e-10
1.03922e-10
6.26653e-10
1.04135e-10
5.96183e-10
1.04165e-10
5.65765e-10
1.04006e-10
5.35456e-10
1.03648e-10
5.05316e-10
1.03081e-10
4.75402e-10
1.023e-10
4.45781e-10
1.01297e-10
4.1652e-10
1.00064e-10
3.87688e-10
9.85908e-11
3.59351e-10
9.68701e-11
3.31581e-10
9.48969e-11
3.04452e-10
9.26653e-11
2.78041e-10
9.01674e-11
2.52422e-10
8.73961e-11
2.2767e-10
8.43468e-11
2.03863e-10
8.10172e-11
1.81078e-10
7.74058e-11
1.59393e-10
7.35117e-11
1.3888e-10
6.9337e-11
1.19613e-10
6.48869e-11
1.01663e-10
6.01703e-11
8.50916e-11
5.52009e-11
6.99562e-11
5.00003e-11
5.63072e-11
4.45975e-11
4.41858e-11
3.90292e-11
3.36155e-11
3.33447e-11
2.45992e-11
2.76138e-11
1.71238e-11
2.19284e-11
1.11563e-11
1.64023e-11
6.62644e-12
1.11782e-11
3.41649e-12
6.44755e-12
1.37357e-12
2.46175e-12
3.14803e-13
-4.70831e-13
-2.83902e-14
-1.97558e-12
-1.54077e-12
1.82714e-13
1.34365e-12
1.07036e-12
1.0402e-12
2.94588e-12
-1.48487e-12
6.03666e-12
-5.66216e-12
1.05195e-11
-1.10593e-11
1.65292e-11
-1.73265e-11
2.41624e-11
-2.41825e-11
3.34829e-11
-3.14038e-11
4.45253e-11
-3.88133e-11
5.72993e-11
-4.62711e-11
7.17947e-11
-5.36681e-11
8.79838e-11
-6.09202e-11
1.05824e-10
-6.79625e-11
1.2526e-10
-7.47451e-11
1.4623e-10
-8.12304e-11
1.68665e-10
-8.73916e-11
1.92488e-10
-9.32102e-11
2.1762e-10
-9.86731e-11
2.43979e-10
-1.03773e-10
2.7148e-10
-1.08505e-10
3.00038e-10
-1.12868e-10
3.2957e-10
-1.16866e-10
3.59988e-10
-1.20503e-10
3.91209e-10
-1.23783e-10
4.2315e-10
-1.26715e-10
4.55728e-10
-1.29305e-10
4.88864e-10
-1.31563e-10
5.2248e-10
-1.33498e-10
5.56498e-10
-1.35119e-10
5.90846e-10
-1.36436e-10
6.25451e-10
-1.37461e-10
6.60244e-10
-1.38203e-10
6.95156e-10
-1.38672e-10
7.30125e-10
-1.38879e-10
7.65086e-10
-1.38835e-10
7.99981e-10
-1.38548e-10
8.34751e-10
-1.3803e-10
8.69341e-10
-1.3729e-10
9.03697e-10
-1.36339e-10
9.3777e-10
-1.35184e-10
9.71509e-10
-1.33837e-10
1.00487e-09
-1.32305e-10
1.03781e-09
-1.30598e-10
1.07028e-09
-1.28724e-10
1.10224e-09
-1.26692e-10
1.13366e-09
-1.24509e-10
1.1645e-09
-1.22184e-10
1.19473e-09
-1.19723e-10
1.22431e-09
-1.17135e-10
1.25321e-09
-1.14426e-10
1.2814e-09
-1.11603e-10
1.30886e-09
-1.08672e-10
1.33555e-09
-1.0564e-10
1.36147e-09
-1.02513e-10
1.38657e-09
-9.92956e-11
1.41084e-09
-9.59945e-11
1.43426e-09
-9.26146e-11
1.45681e-09
-8.9161e-11
1.47848e-09
-8.56383e-11
1.49923e-09
-8.20511e-11
1.51907e-09
-7.84038e-11
1.53798e-09
-7.47007e-11
1.55594e-09
-7.09459e-11
1.57293e-09
-6.71431e-11
1.58896e-09
-6.32958e-11
1.604e-09
-5.94075e-11
1.61805e-09
-5.54817e-11
1.6311e-09
-5.15215e-11
1.64314e-09
-4.75297e-11
1.65416e-09
-4.35093e-11
1.66416e-09
-3.94633e-11
1.67313e-09
-3.53944e-11
1.68106e-09
-3.13049e-11
1.68795e-09
-2.71971e-11
1.6938e-09
-2.30738e-11
1.6986e-09
-1.89374e-11
1.70235e-09
-1.47901e-11
1.70505e-09
-1.06338e-11
1.70669e-09
-6.47088e-12
1.70728e-09
-2.3039e-12
1.70681e-09
1.86513e-12
1.70529e-09
6.03433e-12
1.70271e-09
1.02014e-11
1.69907e-09
1.43639e-11
1.69438e-09
1.85196e-11
1.68865e-09
2.26665e-11
1.68186e-09
2.68022e-11
1.67403e-09
3.0924e-11
1.66517e-09
3.50295e-11
1.65526e-09
3.91164e-11
1.64433e-09
4.3182e-11
1.63238e-09
4.72232e-11
1.61941e-09
5.12372e-11
1.60543e-09
5.52212e-11
1.59046e-09
5.91722e-11
1.5745e-09
6.30866e-11
1.55755e-09
6.69606e-11
1.53964e-09
7.07911e-11
1.52078e-09
7.45745e-11
1.50097e-09
7.83067e-11
1.48023e-09
8.19832e-11
1.45859e-09
8.55996e-11
1.43604e-09
8.91519e-11
1.41263e-09
9.26353e-11
1.38835e-09
9.60445e-11
1.36323e-09
9.9374e-11
1.3373e-09
1.02619e-10
1.31058e-09
1.05774e-10
1.28308e-09
1.08833e-10
1.25485e-09
1.11789e-10
1.2259e-09
1.14636e-10
1.19627e-09
1.17368e-10
1.16599e-09
1.19978e-10
1.13508e-09
1.22458e-10
1.10359e-09
1.24801e-10
1.07155e-09
1.27e-10
1.039e-09
1.29047e-10
1.00599e-09
1.30932e-10
9.7254e-10
1.3265e-10
9.38713e-10
1.3419e-10
9.04553e-10
1.35544e-10
8.70109e-10
1.36701e-10
8.35428e-10
1.37652e-10
8.00565e-10
1.38392e-10
7.65581e-10
1.38907e-10
7.30532e-10
1.39188e-10
6.95476e-10
1.39223e-10
6.60476e-10
1.39005e-10
6.256e-10
1.38523e-10
5.90917e-10
1.37767e-10
5.56496e-10
1.36724e-10
5.22405e-10
1.35385e-10
4.88722e-10
1.33744e-10
4.55526e-10
1.31787e-10
4.22895e-10
1.29505e-10
3.90906e-10
1.26887e-10
3.59642e-10
1.23928e-10
3.29188e-10
1.2062e-10
2.99628e-10
1.16955e-10
2.71048e-10
1.12928e-10
2.43532e-10
1.08534e-10
2.17165e-10
1.03772e-10
1.92032e-10
9.86444e-11
1.68214e-10
9.31539e-11
1.45791e-10
8.73092e-11
1.24838e-10
8.11233e-11
1.05426e-10
7.46147e-11
8.76146e-11
6.78113e-11
7.14566e-11
6.07524e-11
5.69955e-11
5.34885e-11
4.42616e-11
4.60824e-11
3.32618e-11
3.86173e-11
2.39802e-11
3.12058e-11
1.63833e-11
2.39917e-11
1.04133e-11
1.71501e-11
5.96882e-12
1.09002e-11
2.90421e-12
5.52531e-12
1.04832e-12
1.38072e-12
1.75893e-13
-1.10421e-12
-1.36438e-12
3.99705e-13
9.45291e-13
1.85278e-12
-4.11352e-13
4.57996e-12
-4.21265e-12
8.76878e-12
-9.851e-12
1.45684e-11
-1.68583e-11
2.20931e-11
-2.48504e-11
3.14249e-11
-3.3514e-11
4.26176e-11
-4.25961e-11
5.56988e-11
-5.18939e-11
7.06725e-11
-6.1245e-11
8.75236e-11
-7.052e-11
1.0622e-10
-7.96175e-11
1.26717e-10
-8.84588e-11
1.48956e-10
-9.69829e-11
1.72867e-10
-1.05143e-10
1.98379e-10
-1.12903e-10
2.25409e-10
-1.20241e-10
2.53872e-10
-1.27136e-10
2.83681e-10
-1.3358e-10
3.14743e-10
-1.39567e-10
3.46967e-10
-1.45093e-10
3.80261e-10
-1.5016e-10
4.14531e-10
-1.54774e-10
4.49687e-10
-1.58939e-10
4.85636e-10
-1.62664e-10
5.2229e-10
-1.65959e-10
5.5956e-10
-1.68833e-10
5.9736e-10
-1.71298e-10
6.35606e-10
-1.73366e-10
6.74217e-10
-1.75048e-10
7.13112e-10
-1.76357e-10
7.52216e-10
-1.77307e-10
7.91452e-10
-1.77909e-10
8.30749e-10
-1.78178e-10
8.70039e-10
-1.78124e-10
9.09253e-10
-1.77762e-10
9.48327e-10
-1.77104e-10
9.87199e-10
-1.76163e-10
1.02581e-09
-1.7495e-10
1.0641e-09
-1.73478e-10
1.10203e-09
-1.71758e-10
1.13952e-09
-1.69802e-10
1.17655e-09
-1.6762e-10
1.21305e-09
-1.65225e-10
1.24898e-09
-1.62626e-10
1.28431e-09
-1.59834e-10
1.31898e-09
-1.56858e-10
1.35297e-09
-1.53709e-10
1.38623e-09
-1.50395e-10
1.41873e-09
-1.46925e-10
1.45044e-09
-1.43308e-10
1.48132e-09
-1.39553e-10
1.51135e-09
-1.35667e-10
1.54049e-09
-1.31658e-10
1.56873e-09
-1.27533e-10
1.59604e-09
-1.23299e-10
1.62239e-09
-1.18964e-10
1.64776e-09
-1.14533e-10
1.67214e-09
-1.10013e-10
1.6955e-09
-1.0541e-10
1.71782e-09
-1.00729e-10
1.7391e-09
-9.59756e-11
1.75931e-09
-9.11551e-11
1.77844e-09
-8.62725e-11
1.79648e-09
-8.13322e-11
1.81341e-09
-7.63388e-11
1.82922e-09
-7.12966e-11
1.84391e-09
-6.62098e-11
1.85747e-09
-6.10822e-11
1.86987e-09
-5.59174e-11
1.88113e-09
-5.07191e-11
1.89123e-09
-4.5491e-11
1.90016e-09
-4.02364e-11
1.90792e-09
-3.49582e-11
1.91451e-09
-2.96595e-11
1.91991e-09
-2.43437e-11
1.92414e-09
-1.90139e-11
1.92718e-09
-1.36726e-11
1.92903e-09
-8.32267e-12
1.92969e-09
-2.96713e-12
1.92917e-09
2.39098e-12
1.92745e-09
7.74904e-12
1.92455e-09
1.31044e-11
1.92046e-09
1.84539e-11
1.91519e-09
2.37947e-11
1.90873e-09
2.91237e-11