/*--------------------------------*- C++ -*----------------------------------*\
  =========                 |
  \\      /  F ield         | OpenFOAM: The Open Source CFD Toolbox
   \\    /   O peration     | Website:  https://openfoam.org
    \\  /    A nd           | Version:  7
     \\/     M anipulation  |
\*---------------------------------------------------------------------------*/
FoamFile
{
    version     2.0;
    format      ascii;
    class       surfaceScalarField;
    location    "0.1";
    object      phi;
}
// * * * * * * * * * * * * * * * * * * * * * * * * * * * * * * * * * * * * * //

dimensions      [0 3 -1 0 0 0 0];

internalField   nonuniform List<scalar> 
25360
(
6.6975e-11
-6.69984e-11
2.16001e-10
-1.49024e-10
3.6867e-10
-1.52675e-10
4.77775e-10
-1.09093e-10
5.16427e-10
-3.86504e-11
4.70511e-10
4.59195e-11
3.34149e-10
1.36358e-10
1.06738e-10
2.27421e-10
-2.09141e-10
3.15876e-10
-6.08916e-10
3.9978e-10
-1.08692e-09
4.78003e-10
-1.63683e-09
5.49912e-10
-2.25207e-09
6.15243e-10
-2.92606e-09
6.73979e-10
-3.6523e-09
7.26246e-10
-4.42461e-09
7.72315e-10
-5.23709e-09
8.1248e-10
-6.08418e-09
8.471e-10
-6.96076e-09
8.76579e-10
-7.86206e-09
9.013e-10
-8.78374e-09
9.21685e-10
-9.72187e-09
9.3813e-10
-1.06729e-08
9.5101e-10
-1.16336e-08
9.60704e-10
-1.26012e-08
9.67572e-10
-1.35731e-08
9.7192e-10
-1.45471e-08
9.74052e-10
-1.55214e-08
9.74261e-10
-1.64942e-08
9.72798e-10
-1.74641e-08
9.69893e-10
-1.84299e-08
9.65775e-10
-1.93905e-08
9.60635e-10
-2.03451e-08
9.54629e-10
-2.1293e-08
9.47903e-10
-2.22336e-08
9.40605e-10
-2.31665e-08
9.32862e-10
-2.40913e-08
9.24772e-10
-2.50077e-08
9.16413e-10
-2.59156e-08
9.07862e-10
-2.68147e-08
8.99195e-10
-2.77052e-08
8.90466e-10
-2.85869e-08
8.81721e-10
-2.94599e-08
8.73007e-10
-3.03243e-08
8.64361e-10
-3.11801e-08
8.55809e-10
-3.20275e-08
8.47371e-10
-3.28666e-08
8.39073e-10
-3.36975e-08
8.30947e-10
-3.45205e-08
8.23011e-10
-3.53358e-08
8.1527e-10
-3.61435e-08
8.07732e-10
-3.69439e-08
8.00416e-10
-3.77373e-08
7.93334e-10
-3.85238e-08
7.86492e-10
-3.93037e-08
7.79896e-10
-4.00772e-08
7.73557e-10
-4.08447e-08
7.67489e-10
-4.16064e-08
7.61697e-10
-4.23626e-08
7.5618e-10
-4.31135e-08
7.50934e-10
-4.38595e-08
7.45965e-10
-4.46008e-08
7.41278e-10
-4.53376e-08
7.36863e-10
-4.60703e-08
7.32708e-10
-4.67991e-08
7.28807e-10
-4.75243e-08
7.25153e-10
-4.8246e-08
7.21736e-10
-4.89646e-08
7.18538e-10
-4.96801e-08
7.15539e-10
-5.03928e-08
7.12714e-10
-5.11029e-08
7.10039e-10
-5.18104e-08
7.07489e-10
-5.25154e-08
7.05027e-10
-5.3218e-08
7.02606e-10
-5.39182e-08
7.00179e-10
-5.46159e-08
6.97697e-10
-5.5311e-08
6.95103e-10
-5.60033e-08
6.92331e-10
-5.66926e-08
6.89307e-10
-5.73786e-08
6.85951e-10
-5.80607e-08
6.82179e-10
-5.87386e-08
6.77901e-10
-5.94117e-08
6.73023e-10
-6.00791e-08
6.67438e-10
-6.07401e-08
6.61033e-10
-6.13938e-08
6.53687e-10
-6.20391e-08
6.45275e-10
-6.26748e-08
6.35669e-10
-6.32995e-08
6.24728e-10
-6.39118e-08
6.12299e-10
-6.451e-08
5.98223e-10
-6.50924e-08
5.82341e-10
-6.56568e-08
5.64491e-10
-6.62013e-08
5.44504e-10
-6.67235e-08
5.22209e-10
-6.7221e-08
4.97428e-10
-6.7691e-08
4.69984e-10
-6.81307e-08
4.39705e-10
-6.85371e-08
4.06418e-10
-6.8907e-08
3.69956e-10
-6.92372e-08
3.30158e-10
-6.95241e-08
2.86871e-10
-6.9764e-08
2.3995e-10
-6.99533e-08
1.89266e-10
-7.0088e-08
1.34706e-10
-7.01642e-08
7.6178e-11
-7.01778e-08
1.36112e-11
-7.01247e-08
-5.3045e-11
-7.00009e-08
-1.23811e-10
-6.98022e-08
-1.98675e-10
-6.95247e-08
-2.77583e-10
-6.91642e-08
-3.60443e-10
-6.87171e-08
-4.47119e-10
-6.81797e-08
-5.37437e-10
-6.75485e-08
-6.3117e-10
-6.68205e-08
-7.28043e-10
-6.59927e-08
-8.27723e-10
-6.50629e-08
-9.29824e-10
-6.4029e-08
-1.0339e-09
-6.28896e-08
-1.13945e-09
-6.16436e-08
-1.24591e-09
-6.0291e-08
-1.35268e-09
-5.88319e-08
-1.45908e-09
-5.72675e-08
-1.5644e-09
-5.55996e-08
-1.66785e-09
-5.3831e-08
-1.76863e-09
-5.19651e-08
-1.86589e-09
-5.00064e-08
-1.95874e-09
-4.79601e-08
-2.04627e-09
-4.58325e-08
-2.12758e-09
-4.36308e-08
-2.20172e-09
-4.1363e-08
-2.26779e-09
-3.90382e-08
-2.32486e-09
-3.66661e-08
-2.37204e-09
-3.42576e-08
-2.4085e-09
-3.18242e-08
-2.43344e-09
-2.93781e-08
-2.4461e-09
-2.69323e-08
-2.44581e-09
-2.45003e-08
-2.43197e-09
-2.20962e-08
-2.40406e-09
-1.97346e-08
-2.36165e-09
-1.74302e-08
-2.3044e-09
-1.51981e-08
-2.23209e-09
-1.30535e-08
-2.14461e-09
-1.10116e-08
-2.04193e-09
-9.08742e-09
-1.92415e-09
-7.29594e-09
-1.79147e-09
-5.6517e-09
-1.64424e-09
-4.16874e-09
-1.48295e-09
-2.86045e-09
-1.30829e-09
-1.73924e-09
-1.12121e-09
-8.16184e-10
-9.23053e-10
-1.00357e-10
-7.15826e-10
4.02284e-10
-5.0264e-10
6.90778e-10
-2.88494e-10
7.72643e-10
-8.18653e-11
6.69996e-10
1.02646e-10
4.30933e-10
2.39064e-10
1.51676e-10
2.79256e-10
1.51674e-10
1.53914e-10
-2.2091e-10
4.0494e-10
-4.00052e-10
6.22528e-10
-3.7027e-10
7.20149e-10
-2.06709e-10
6.40565e-10
4.09297e-11
3.49406e-10
3.37075e-10
-1.70572e-10
6.56344e-10
-9.24616e-10
9.81454e-10
-1.90955e-09
1.30082e-09
-3.11666e-09
1.60689e-09
-4.53351e-09
1.89485e-09
-6.14542e-09
2.16182e-09
-7.93643e-09
2.40625e-09
-9.89001e-09
2.62756e-09
-1.19896e-08
2.82585e-09
-1.4219e-08
3.00171e-09
-1.65626e-08
3.15602e-09
-1.90054e-08
3.2899e-09
-2.15334e-08
3.40465e-09
-2.41337e-08
3.5016e-09
-2.67942e-08
3.58217e-09
-2.95039e-08
3.64776e-09
-3.22526e-08
3.69973e-09
-3.50313e-08
3.73944e-09
-3.78319e-08
3.76816e-09
-4.06471e-08
3.78708e-09
-4.34703e-08
3.79734e-09
-4.62961e-08
3.79999e-09
-4.91193e-08
3.79599e-09
-5.19356e-08
3.78624e-09
-5.47414e-08
3.77155e-09
-5.75334e-08
3.75266e-09
-6.0309e-08
3.73022e-09
-6.30659e-08
3.70481e-09
-6.58023e-08
3.67698e-09
-6.85166e-08
3.64719e-09
-7.12077e-08
3.61584e-09
-7.38745e-08
3.58328e-09
-7.65165e-08
3.54983e-09
-7.91331e-08
3.51576e-09
-8.17239e-08
3.48131e-09
-8.42889e-08
3.44667e-09
-8.68279e-08
3.41204e-09
-8.93411e-08
3.37756e-09
-9.18286e-08
3.34335e-09
-9.42908e-08
3.30952e-09
-9.67279e-08
3.27618e-09
-9.91403e-08
3.24341e-09
-1.01529e-07
3.21129e-09
-1.03893e-07
3.17989e-09
-1.06235e-07
3.14925e-09
-1.08554e-07
3.11944e-09
-1.10851e-07
3.0905e-09
-1.13127e-07
3.06246e-09
-1.15382e-07
3.03536e-09
-1.17618e-07
3.00923e-09
-1.19835e-07
2.98411e-09
-1.22033e-07
2.96001e-09
-1.24214e-07
2.93694e-09
-1.26378e-07
2.91491e-09
-1.28526e-07
2.89391e-09
-1.30658e-07
2.87394e-09
-1.32776e-07
2.85499e-09
-1.34881e-07
2.83702e-09
-1.36972e-07
2.82001e-09
-1.39051e-07
2.80391e-09
-1.41118e-07
2.78868e-09
-1.43173e-07
2.77425e-09
-1.45218e-07
2.76053e-09
-1.47253e-07
2.74744e-09
-1.49278e-07
2.73487e-09
-1.51293e-07
2.7227e-09
-1.53299e-07
2.71079e-09
-1.55295e-07
2.69896e-09
-1.57282e-07
2.68704e-09
-1.59259e-07
2.67481e-09
-1.61226e-07
2.66206e-09
-1.63182e-07
2.64854e-09
-1.65127e-07
2.63397e-09
-1.67059e-07
2.61805e-09
-1.68977e-07
2.60045e-09
-1.7088e-07
2.58082e-09
-1.72766e-07
2.55879e-09
-1.74633e-07
2.53397e-09
-1.76478e-07
2.50592e-09
-1.78298e-07
2.47418e-09
-1.80091e-07
2.43827e-09
-1.81853e-07
2.39769e-09
-1.8358e-07
2.35191e-09
-1.85268e-07
2.30035e-09
-1.86913e-07
2.24245e-09
-1.88508e-07
2.17759e-09
-1.90048e-07
2.10517e-09
-1.91529e-07
2.02456e-09
-1.92941e-07
1.93511e-09
-1.9428e-07
1.83617e-09
-1.95537e-07
1.72711e-09
-1.96705e-07
1.60727e-09
-1.97774e-07
1.47602e-09
-1.98737e-07
1.33276e-09
-1.99584e-07
1.1769e-09
-2.00305e-07
1.00788e-09
-2.0089e-07
8.25198e-10
-2.01329e-07
6.28398e-10
-2.01612e-07
4.17084e-10
-2.01727e-07
1.90938e-10
-2.01663e-07
-5.02713e-11
-2.01409e-07
-3.06683e-10
-2.00954e-07
-5.78325e-10
-2.00288e-07
-8.65103e-10
-1.99399e-07
-1.16678e-09
-1.98276e-07
-1.48298e-09
-1.9691e-07
-1.81315e-09
-1.95291e-07
-2.15659e-09
-1.9341e-07
-2.51241e-09
-1.91258e-07
-2.87952e-09
-1.88829e-07
-3.25667e-09
-1.86117e-07
-3.64235e-09
-1.83116e-07
-4.0349e-09
-1.79823e-07
-4.4324e-09
-1.76236e-07
-4.83277e-09
-1.72355e-07
-5.23368e-09
-1.68182e-07
-5.63264e-09
-1.63719e-07
-6.02695e-09
-1.58973e-07
-6.41375e-09
-1.53952e-07
-6.79001e-09
-1.48665e-07
-7.15258e-09
-1.43126e-07
-7.49819e-09
-1.37348e-07
-7.82351e-09
-1.31351e-07
-8.12514e-09
-1.25153e-07
-8.39966e-09
-1.18777e-07
-8.64368e-09
-1.12248e-07
-8.85385e-09
-1.05593e-07
-9.02694e-09
-9.88418e-08
-9.15984e-09
-9.20256e-08
-9.24961e-09
-8.51781e-08
-9.29356e-09
-7.83347e-08
-9.28921e-09
-7.15323e-08
-9.23438e-09
-6.48091e-08
-9.12723e-09
-5.82045e-08
-8.96624e-09
-5.17587e-08
-8.75027e-09
-4.55122e-08
-8.47858e-09
-3.95059e-08
-8.15086e-09
-3.37806e-08
-7.76724e-09
-2.83765e-08
-7.32829e-09
-2.33328e-08
-6.83515e-09
-1.86875e-08
-6.28952e-09
-1.44766e-08
-5.69383e-09
-1.07335e-08
-5.05142e-09
-7.48786e-09
-4.36686e-09
-4.76443e-09
-3.64649e-09
-2.58093e-09
-2.89932e-09
-9.45069e-10
-2.1385e-09
1.50161e-10
-1.38372e-09
7.33531e-10
-6.65236e-10
8.66292e-10
-3.01202e-11
6.56845e-10
4.48507e-10
2.78353e-10
6.57744e-10
4.30023e-10
1.64076e-10
-3.84992e-10
3.90362e-10
-6.26335e-10
5.21363e-10
-5.01272e-10
4.52306e-10
-1.37648e-10
1.11521e-10
3.81711e-10
-5.4619e-10
9.9478e-10
-1.54536e-09
1.65551e-09
-2.89489e-09
2.33098e-09
-4.59219e-09
2.99811e-09
-6.62641e-09
3.64111e-09
-8.98097e-09
4.24942e-09
-1.16355e-08
4.81635e-09
-1.45673e-08
5.33802e-09
-1.77523e-08
5.81259e-09
-2.11662e-08
6.23971e-09
-2.47846e-08
6.62015e-09
-2.8584e-08
6.95541e-09
-3.25417e-08
7.24757e-09
-3.66361e-08
7.49907e-09
-4.08471e-08
7.71259e-09
-4.51558e-08
7.89091e-09
-4.9545e-08
8.03692e-09
-5.39987e-08
8.15344e-09
-5.85025e-08
8.24323e-09
-6.30433e-08
8.30897e-09
-6.76094e-08
8.3532e-09
-7.21904e-08
8.37831e-09
-7.6777e-08
8.38655e-09
-8.1361e-08
8.37998e-09
-8.59353e-08
8.36054e-09
-9.04937e-08
8.32996e-09
-9.50309e-08
8.28985e-09
-9.95423e-08
8.24163e-09
-1.04024e-07
8.18659e-09
-1.08473e-07
8.12591e-09
-1.12886e-07
8.06061e-09
-1.17262e-07
7.99159e-09
-1.21599e-07
7.91966e-09
-1.25894e-07
7.8455e-09
-1.30148e-07
7.76975e-09
-1.3436e-07
7.69292e-09
-1.38529e-07
7.6155e-09
-1.42654e-07
7.53788e-09
-1.46737e-07
7.46043e-09
-1.50777e-07
7.38343e-09
-1.54775e-07
7.30716e-09
-1.58731e-07
7.23184e-09
-1.62645e-07
7.15769e-09
-1.66519e-07
7.08486e-09
-1.70352e-07
7.01352e-09
-1.74147e-07
6.94381e-09
-1.77903e-07
6.87584e-09
-1.81622e-07
6.80972e-09
-1.85306e-07
6.74555e-09
-1.88954e-07
6.68339e-09
-1.92568e-07
6.62332e-09
-1.96149e-07
6.56541e-09
-1.99699e-07
6.50968e-09
-2.03218e-07
6.45616e-09
-2.06708e-07
6.40487e-09
-2.1017e-07
6.3558e-09
-2.13605e-07
6.30894e-09
-2.17014e-07
6.26425e-09
-2.20399e-07
6.22166e-09
-2.2376e-07
6.18111e-09
-2.27098e-07
6.14251e-09
-2.30415e-07
6.10574e-09
-2.33712e-07
6.07063e-09
-2.36988e-07
6.03702e-09
-2.40245e-07
6.00469e-09
-2.43484e-07
5.9734e-09
-2.46704e-07
5.94288e-09
-2.49906e-07
5.9128e-09
-2.5309e-07
5.8828e-09
-2.56255e-07
5.85247e-09
-2.59402e-07
5.82136e-09
-2.62529e-07
5.78899e-09
-2.65635e-07
5.75479e-09
-2.68719e-07
5.71817e-09
-2.7178e-07
5.67848e-09
-2.74814e-07
5.635e-09
-2.77821e-07
5.58698e-09
-2.80795e-07
5.53361e-09
-2.83735e-07
5.474e-09
-2.86637e-07
5.40722e-09
-2.89495e-07
5.33229e-09
-2.92305e-07
5.24816e-09
-2.95061e-07
5.15374e-09
-2.97757e-07
5.04789e-09
-3.00386e-07
4.92939e-09
-3.0294e-07
4.797e-09
-3.05412e-07
4.64944e-09
-3.07792e-07
4.48539e-09
-3.10071e-07
4.30351e-09
-3.12239e-07
4.10244e-09
-3.14283e-07
3.88081e-09
-3.16193e-07
3.63724e-09
-3.17956e-07
3.37039e-09
-3.19559e-07
3.07892e-09
-3.20988e-07
2.76155e-09
-3.22228e-07
2.41707e-09
-3.23265e-07
2.04433e-09
-3.24082e-07
1.64227e-09
-3.24663e-07
1.20997e-09
-3.24993e-07
7.46636e-10
-3.25054e-07
2.51639e-10
-3.24829e-07
-2.75461e-10
-3.243e-07
-8.34894e-10
-3.23452e-07
-1.42665e-09
-3.22267e-07
-2.05047e-09
-3.20728e-07
-2.70577e-09
-3.18819e-07
-3.39168e-09
-3.16525e-07
-4.10698e-09
-3.13832e-07
-4.85008e-09
-3.10725e-07
-5.61902e-09
-3.07193e-07
-6.41144e-09
-3.03225e-07
-7.22456e-09
-2.98812e-07
-8.05517e-09
-2.93948e-07
-8.89962e-09
-2.88626e-07
-9.75382e-09
-2.82846e-07
-1.06133e-08
-2.76606e-07
-1.1473e-08
-2.69911e-07
-1.23277e-08
-2.62767e-07
-1.31716e-08
-2.55182e-07
-1.39986e-08
-2.4717e-07
-1.48023e-08
-2.38746e-07
-1.55759e-08
-2.29932e-07
-1.63126e-08
-2.2075e-07
-1.70054e-08
-2.11228e-07
-1.76469e-08
-2.01398e-07
-1.823e-08
-1.91294e-07
-1.87476e-08
-1.80955e-07
-1.91926e-08
-1.70424e-07
-1.95581e-08
-1.59746e-07
-1.98377e-08
-1.48971e-07
-2.00252e-08
-1.38149e-07
-2.01149e-08
-1.27337e-07
-2.01017e-08
-1.1659e-07
-1.99809e-08
-1.05968e-07
-1.97489e-08
-9.55321e-08
-1.94025e-08
-8.53429e-08
-1.89395e-08
-7.54631e-08
-1.83584e-08
-6.59551e-08
-1.76589e-08
-5.68809e-08
-1.68414e-08
-4.83016e-08
-1.59077e-08
-4.02761e-08
-1.48606e-08
-3.28613e-08
-1.37044e-08
-2.61099e-08
-1.24452e-08
-2.00702e-08
-1.10911e-08
-1.47841e-08
-9.65301e-09
-1.02847e-08
-8.14591e-09
-6.59365e-09
-6.59033e-09
-3.71713e-09
-5.01502e-09
-1.63985e-09
-3.461e-09
-3.17409e-10
-1.98768e-09
3.34302e-10
-6.81835e-10
4.51885e-10
3.30919e-10
2.38766e-10
8.70863e-10
6.68785e-10
1.19659e-10
-5.04645e-10
2.2847e-10
-7.35136e-10
1.63778e-10
-4.3658e-10
-1.85202e-10
2.11336e-10
-8.95045e-10
1.09157e-09
-2.01514e-09
2.11487e-09
-3.57306e-09
3.21344e-09
-5.57934e-09
4.33726e-09
-8.0314e-09
5.45018e-09
-1.09168e-08
6.52654e-09
-1.42161e-08
7.54867e-09
-1.79046e-08
8.50491e-09
-2.19547e-08
9.38808e-09
-2.63365e-08
1.01944e-08
-3.10196e-08
1.09228e-08
-3.59731e-08
1.15737e-08
-4.1167e-08
1.21493e-08
-4.65721e-08
1.26526e-08
-5.21605e-08
1.30875e-08
-5.79058e-08
1.34579e-08
-6.37835e-08
1.37686e-08
-6.97706e-08
1.4024e-08
-7.58461e-08
1.42289e-08
-8.19907e-08
1.43878e-08
-8.81868e-08
1.45051e-08
-9.44187e-08
1.45851e-08
-1.00672e-07
1.46318e-08
-1.06935e-07
1.4649e-08
-1.13195e-07
1.46402e-08
-1.19443e-07
1.46087e-08
-1.25671e-07
1.45575e-08
-1.3187e-07
1.44893e-08
-1.38035e-07
1.44066e-08
-1.4416e-07
1.43116e-08
-1.50241e-07
1.42064e-08
-1.56273e-07
1.40926e-08
-1.62253e-07
1.3972e-08
-1.68179e-07
1.3846e-08
-1.7405e-07
1.37157e-08
-1.79862e-07
1.35823e-08
-1.85616e-07
1.34467e-08
-1.9131e-07
1.33097e-08
-1.96944e-07
1.31722e-08
-2.02519e-07
1.30347e-08
-2.08033e-07
1.28977e-08
-2.13487e-07
1.27619e-08
-2.18883e-07
1.26275e-08
-2.2422e-07
1.2495e-08
-2.295e-07
1.23646e-08
-2.34723e-07
1.22368e-08
-2.39891e-07
1.21117e-08
-2.45005e-07
1.19895e-08
-2.50066e-07
1.18704e-08
-2.55075e-07
1.17546e-08
-2.60034e-07
1.16423e-08
-2.64944e-07
1.15336e-08
-2.69807e-07
1.14285e-08
-2.74624e-07
1.13271e-08
-2.79398e-07
1.12295e-08
-2.84129e-07
1.11357e-08
-2.88819e-07
1.10457e-08
-2.93469e-07
1.09595e-08
-2.98082e-07
1.08769e-08
-3.02658e-07
1.0798e-08
-3.07199e-07
1.07225e-08
-3.11707e-07
1.06502e-08
-3.16182e-07
1.0581e-08
-3.20627e-07
1.05147e-08
-3.2504e-07
1.04507e-08
-3.29424e-07
1.03889e-08
-3.3378e-07
1.03288e-08
-3.38107e-07
1.02698e-08
-3.42405e-07
1.02114e-08
-3.46676e-07
1.0153e-08
-3.50917e-07
1.00939e-08
-3.55129e-07
1.00333e-08
-3.5931e-07
9.97029e-09
-3.63459e-07
9.90395e-09
-3.67574e-07
9.83324e-09
-3.71653e-07
9.75704e-09
-3.75692e-07
9.67412e-09
-3.79688e-07
9.58317e-09
-3.83638e-07
9.48278e-09
-3.87535e-07
9.37145e-09
-3.91375e-07
9.24757e-09
-3.95152e-07
9.10945e-09
-3.9886e-07
8.95531e-09
-4.02489e-07
8.78326e-09
-4.06033e-07
8.59135e-09
-4.09481e-07
8.37753e-09
-4.12823e-07
8.13968e-09
-4.1605e-07
7.87563e-09
-4.19147e-07
7.58315e-09
-4.22104e-07
7.25995e-09
-4.24905e-07
6.90375e-09
-4.27537e-07
6.51224e-09
-4.29982e-07
6.0831e-09
-4.32226e-07
5.61408e-09
-4.3425e-07
5.10296e-09
-4.36036e-07
4.5476e-09
-4.37565e-07
3.94598e-09
-4.38817e-07
3.2962e-09
-4.39771e-07
2.59654e-09
-4.40407e-07
1.84549e-09
-4.40702e-07
1.04179e-09
-4.40635e-07
1.84436e-10
-4.40183e-07
-7.27228e-10
-4.39324e-07
-1.69351e-09
-4.38037e-07
-2.7143e-09
-4.36298e-07
-3.78903e-09
-4.34087e-07
-4.91667e-09
-4.31383e-07
-6.09562e-09
-4.28167e-07
-7.32371e-09
-4.24418e-07
-8.59817e-09
-4.20122e-07
-9.9156e-09
-4.15261e-07
-1.12719e-08
-4.09824e-07
-1.26623e-08
-4.03798e-07
-1.40812e-08
-3.97175e-07
-1.55225e-08
-3.8995e-07
-1.69791e-08
-3.8212e-07
-1.84434e-08
-3.73686e-07
-1.9907e-08
-3.64653e-07
-2.13607e-08
-3.55029e-07
-2.2795e-08
-3.44828e-07
-2.41994e-08
-3.34067e-07
-2.55632e-08
-3.22768e-07
-2.6875e-08
-3.10958e-07
-2.81232e-08
-2.98667e-07
-2.9296e-08
-2.85933e-07
-3.03811e-08
-2.72796e-07
-3.13666e-08
-2.59304e-07
-3.22403e-08
-2.45506e-07
-3.29906e-08
-2.31458e-07
-3.3606e-08
-2.1722e-07
-3.40755e-08
-2.02856e-07
-3.43889e-08
-1.88434e-07
-3.45367e-08
-1.74026e-07
-3.45103e-08
-1.59704e-07
-3.43023e-08
-1.45547e-07
-3.39063e-08
-1.31632e-07
-3.33173e-08
-1.1804e-07
-3.25317e-08
-1.04851e-07
-3.15475e-08
-9.21456e-08
-3.03642e-08
-8.00037e-08
-2.89833e-08
-6.85033e-08
-2.7408e-08
-5.77197e-08
-2.56442e-08
-4.77245e-08
-2.36997e-08
-3.85837e-08
-2.15859e-08
-3.03571e-08
-1.93177e-08
-2.30951e-08
-1.6915e-08
-1.68367e-08
-1.44043e-08
-1.16062e-08
-1.18209e-08
-7.40836e-09
-9.21286e-09
-4.22315e-09
-6.64621e-09
-1.99847e-09
-4.21235e-09
-6.41436e-10
-2.03887e-09
-8.37208e-12
-3.02147e-10
1.07076e-10
7.55416e-10
7.75861e-10
4.62992e-11
-5.50945e-10
-2.53891e-11
-6.63449e-10
-3.64814e-10
-9.71599e-11
-1.07832e-09
9.24852e-10
-2.24021e-09
2.25345e-09
-3.89877e-09
3.77344e-09
-6.08106e-09
5.39573e-09
-8.79696e-09
7.05316e-09
-1.20427e-08
8.69597e-09
-1.58042e-08
1.0288e-08
-2.00591e-08
1.18036e-08
-2.47795e-08
1.32253e-08
-2.99337e-08
1.45422e-08
-3.54873e-08
1.5748e-08
-4.14048e-08
1.68402e-08
-4.76502e-08
1.78192e-08
-5.41881e-08
1.86872e-08
-6.09839e-08
1.94484e-08
-6.80043e-08
2.01078e-08
-7.52177e-08
2.06714e-08
-8.25945e-08
2.11454e-08
-9.01069e-08
2.15364e-08
-9.77293e-08
2.18513e-08
-1.05438e-07
2.20965e-08
-1.13212e-07
2.22787e-08
-1.2103e-07
2.2404e-08
-1.28877e-07
2.24785e-08
-1.36736e-07
2.25077e-08
-1.44592e-07
2.24969e-08
-1.52435e-07
2.2451e-08
-1.60252e-07
2.23745e-08
-1.68034e-07
2.22716e-08
-1.75773e-07
2.21459e-08
-1.83463e-07
2.20009e-08
-1.91096e-07
2.18397e-08
-1.98668e-07
2.16649e-08
-2.06175e-07
2.14791e-08
-2.13614e-07
2.12844e-08
-2.20981e-07
2.10828e-08
-2.28274e-07
2.08759e-08
-2.35493e-07
2.06652e-08
-2.42635e-07
2.04521e-08
-2.49701e-07
2.02377e-08
-2.56689e-07
2.0023e-08
-2.636e-07
1.9809e-08
-2.70435e-07
1.95962e-08
-2.77193e-07
1.93856e-08
-2.83876e-07
1.91776e-08
-2.90484e-07
1.89727e-08
-2.97018e-07
1.87715e-08
-3.03481e-07
1.85743e-08
-3.09873e-07
1.83815e-08
-3.16196e-07
1.81933e-08
-3.22451e-07
1.80101e-08
-3.28641e-07
1.7832e-08
-3.34767e-07
1.76593e-08
-3.4083e-07
1.74921e-08
-3.46834e-07
1.73305e-08
-3.52779e-07
1.71746e-08
-3.58668e-07
1.70245e-08
-3.64502e-07
1.688e-08
-3.70284e-07
1.67411e-08
-3.76014e-07
1.66078e-08
-3.81696e-07
1.64799e-08
-3.87331e-07
1.63571e-08
-3.9292e-07
1.62392e-08
-3.98465e-07
1.61259e-08
-4.03967e-07
1.60166e-08
-4.09427e-07
1.5911e-08
-4.14847e-07
1.58084e-08
-4.20226e-07
1.57082e-08
-4.25566e-07
1.56095e-08
-4.30866e-07
1.55116e-08
-4.36126e-07
1.54135e-08
-4.41346e-07
1.5314e-08
-4.46525e-07
1.5212e-08
-4.51661e-07
1.51062e-08
-4.56752e-07
1.49951e-08
-4.61796e-07
1.48771e-08
-4.6679e-07
1.47505e-08
-4.71729e-07
1.46134e-08
-4.7661e-07
1.44639e-08
-4.81427e-07
1.42999e-08
-4.86174e-07
1.41189e-08
-4.90845e-07
1.39187e-08
-4.95433e-07
1.36967e-08
-4.99927e-07
1.34501e-08
-5.0432e-07
1.31763e-08
-5.08601e-07
1.28721e-08
-5.12758e-07
1.25345e-08
-5.16779e-07
1.21604e-08
-5.2065e-07
1.17466e-08
-5.24356e-07
1.12896e-08
-5.27882e-07
1.07861e-08
-5.31211e-07
1.02327e-08
-5.34325e-07
9.62592e-09
-5.37204e-07
8.9624e-09
-5.39829e-07
8.23877e-09
-5.42178e-07
7.45177e-09
-5.44228e-07
6.59826e-09
-5.45958e-07
5.67527e-09
-5.47341e-07
4.68004e-09
-5.48355e-07
3.61009e-09
-5.48973e-07
2.46325e-09
-5.49169e-07
1.2377e-09
-5.48916e-07
-6.79099e-11
-5.48189e-07
-1.45448e-09
-5.4696e-07
-2.92234e-09
-5.45203e-07
-4.47122e-09
-5.42892e-07
-6.10016e-09
-5.40001e-07
-7.80746e-09
-5.36506e-07
-9.59062e-09
-5.32384e-07
-1.14463e-08
-5.27612e-07
-1.33703e-08
-5.2217e-07
-1.53573e-08
-5.16041e-07
-1.74011e-08
-5.09209e-07
-1.94945e-08
-5.01661e-07
-2.16292e-08
-4.93387e-07
-2.37958e-08
-4.84382e-07
-2.59839e-08
-4.74644e-07
-2.81818e-08
-4.64174e-07
-3.03771e-08
-4.52978e-07
-3.25563e-08
-4.41068e-07
-3.47048e-08
-4.28461e-07
-3.68072e-08
-4.15176e-07
-3.88476e-08
-4.01242e-07
-4.0809e-08
-3.86691e-07
-4.26742e-08
-3.71562e-07
-4.44256e-08
-3.55897e-07
-4.60453e-08
-3.39749e-07
-4.75152e-08
-3.23171e-07
-4.88177e-08
-3.06227e-07
-4.99353e-08
-2.88982e-07
-5.08511e-08
-2.71508e-07
-5.1549e-08
-2.53883e-07
-5.20139e-08
-2.36188e-07
-5.22317e-08
-2.18509e-07
-5.21899e-08
-2.00933e-07
-5.18775e-08
-1.83554e-07
-5.12853e-08
-1.66466e-07
-5.04061e-08
-1.49762e-07
-4.92349e-08
-1.33541e-07
-4.7769e-08
-1.17897e-07
-4.60082e-08
-1.02925e-07
-4.39552e-08
-8.87171e-08
-4.16158e-08
-7.53622e-08
-3.8999e-08
-6.29438e-08
-3.61181e-08
-5.15389e-08
-3.29908e-08
-4.12159e-08
-2.96407e-08
-3.20325e-08
-2.60985e-08
-2.40325e-08
-2.24042e-08
-1.72429e-08
-1.86105e-08
-1.16692e-08
-1.47865e-08
-7.29104e-09
-1.10244e-08
-4.05593e-09
-7.44747e-09
-1.87303e-09
-4.22177e-09
-6.06276e-10
-1.5689e-09
-6.69531e-11
2.16091e-10
7.08909e-10
-4.19652e-11
-5.08976e-10
-3.33753e-10
-3.71662e-10
-1.00231e-09
5.71398e-10
-2.14148e-09
2.06402e-09
-3.81755e-09
3.92952e-09
-6.07349e-09
6.02937e-09
-8.93262e-09
8.25486e-09
-1.2402e-08
1.05225e-08
-1.64753e-08
1.27693e-08
-2.11357e-08
1.49484e-08
-2.63583e-08
1.70261e-08
-3.2112e-08
1.8979e-08
-3.83613e-08
2.07916e-08
-4.50683e-08
2.2455e-08
-5.21931e-08
2.39651e-08
-5.96955e-08
2.53216e-08
-6.75355e-08
2.65272e-08
-7.56739e-08
2.75868e-08
-8.4073e-08
2.85069e-08
-9.26966e-08
2.9295e-08
-1.01511e-07
2.99595e-08
-1.10483e-07
3.05091e-08
-1.19585e-07
3.09529e-08
-1.28788e-07
3.12996e-08
-1.38068e-07
3.15582e-08
-1.47401e-07
3.1737e-08
-1.56766e-07
3.18443e-08
-1.66146e-07
3.18878e-08
-1.75524e-07
3.18746e-08
-1.84885e-07
3.18116e-08
-1.94215e-07
3.17049e-08
-2.03504e-07
3.15604e-08
-2.12741e-07
3.13833e-08
-2.21919e-07
3.11782e-08
-2.31029e-07
3.09496e-08
-2.40065e-07
3.07013e-08
-2.49023e-07
3.04367e-08
-2.57897e-07
3.01589e-08
-2.66685e-07
2.98708e-08
-2.75384e-07
2.95747e-08
-2.83992e-07
2.92727e-08
-2.92506e-07
2.89668e-08
-3.00927e-07
2.86586e-08
-3.09254e-07
2.83496e-08
-3.17486e-07
2.80411e-08
-3.25624e-07
2.77342e-08
-3.33668e-07
2.74299e-08
-3.4162e-07
2.71291e-08
-3.49479e-07
2.68325e-08
-3.57249e-07
2.65408e-08
-3.64929e-07
2.62546e-08
-3.72522e-07
2.59743e-08
-3.80029e-07
2.57006e-08
-3.87453e-07
2.54337e-08
-3.94795e-07
2.51739e-08
-4.02057e-07
2.49216e-08
-4.09242e-07
2.46769e-08
-4.16351e-07
2.44401e-08
-4.23388e-07
2.42111e-08
-4.30353e-07
2.39901e-08
-4.3725e-07
2.3777e-08
-4.44081e-07
2.35718e-08
-4.50847e-07
2.33742e-08
-4.57551e-07
2.3184e-08
-4.64195e-07
2.3001e-08
-4.70781e-07
2.28247e-08
-4.77309e-07
2.26546e-08
-4.83783e-07
2.24902e-08
-4.90203e-07
2.23306e-08
-4.96569e-07
2.21751e-08
-5.02884e-07
2.20227e-08
-5.09147e-07
2.18723e-08
-5.15358e-07
2.17228e-08
-5.21517e-07
2.15726e-08
-5.27623e-07
2.14204e-08
-5.33676e-07
2.12643e-08
-5.39672e-07
2.11026e-08
-5.4561e-07
2.09332e-08
-5.51487e-07
2.07538e-08
-5.57298e-07
2.05621e-08
-5.63041e-07
2.03555e-08
-5.68708e-07
2.01312e-08
-5.74294e-07
1.98861e-08
-5.79792e-07
1.96172e-08
-5.85195e-07
1.93211e-08
-5.90492e-07
1.89941e-08
-5.95675e-07
1.86327e-08
-6.00731e-07
1.82327e-08
-6.05649e-07
1.77902e-08
-6.10416e-07
1.73009e-08
-6.15016e-07
1.67605e-08
-6.19434e-07
1.61644e-08
-6.23652e-07
1.55081e-08
-6.27653e-07
1.47869e-08
-6.31416e-07
1.3996e-08
-6.34921e-07
1.31309e-08
-6.38146e-07
1.21868e-08
-6.41066e-07
1.11592e-08
-6.43658e-07
1.00436e-08
-6.45896e-07
8.83583e-09
-6.47752e-07
7.53179e-09
-6.492e-07
6.12779e-09
-6.5021e-07
4.6205e-09
-6.50754e-07
3.00704e-09
-6.50801e-07
1.28503e-09
-6.50322e-07
-5.47289e-10
-6.49285e-07
-2.49101e-09
-6.47661e-07
-4.54645e-09
-6.45419e-07
-6.7131e-09
-6.4253e-07
-8.98947e-09
-6.38964e-07
-1.13731e-08
-6.34695e-07
-1.38604e-08
-6.29694e-07
-1.64466e-08
-6.23939e-07
-1.91257e-08
-6.17406e-07
-2.18905e-08
-6.10075e-07
-2.47321e-08
-6.01929e-07
-2.76405e-08
-5.92954e-07
-3.06043e-08
-5.83139e-07
-3.36103e-08
-5.72479e-07
-3.66441e-08
-5.60971e-07
-3.96898e-08
-5.48618e-07
-4.27301e-08
-5.35428e-07
-4.57463e-08
-5.21414e-07
-4.87185e-08
-5.06596e-07
-5.16256e-08
-4.90998e-07
-5.44455e-08
-4.74652e-07
-5.71551e-08
-4.57596e-07
-5.97308e-08
-4.39873e-07
-6.21483e-08
-4.21535e-07
-6.43832e-08
-4.02639e-07
-6.64109e-08
-3.8325e-07
-6.82071e-08
-3.63437e-07
-6.97479e-08
-3.43278e-07
-7.10103e-08
-3.22855e-07
-7.19722e-08
-3.02256e-07
-7.2613e-08
-2.81574e-07
-7.29136e-08
-2.60907e-07
-7.2857e-08
-2.40356e-07
-7.24283e-08
-2.20026e-07
-7.1615e-08
-2.00025e-07
-7.04076e-08
-1.8046e-07
-6.87995e-08
-1.61442e-07
-6.67875e-08
-1.43078e-07
-6.43718e-08
-1.25476e-07
-6.15569e-08
-1.08741e-07
-5.83513e-08
-9.29713e-08
-5.47686e-08
-7.82615e-08
-5.0828e-08
-6.46974e-08
-4.65549e-08
-5.23554e-08
-4.19827e-08
-4.12994e-08
-3.71545e-08
-3.15785e-08
-3.21252e-08
-2.32233e-08
-2.69656e-08
-1.62432e-08
-2.17667e-08
-1.06214e-08
-1.66462e-08
-6.31138e-09
-1.17574e-08
-3.23274e-09
-7.30042e-09
-1.26737e-09
-3.53428e-09
-2.56857e-10
-7.94416e-10
4.5205e-10
-1.37511e-10
-3.7147e-10
-6.72938e-10
1.63769e-10
-1.70602e-09
1.60448e-09
-3.31304e-09
3.67104e-09
-5.54807e-09
6.16454e-09
-8.44532e-09
8.92662e-09
-1.20217e-08
1.18312e-08
-1.62793e-08
1.47801e-08
-2.12078e-08
1.76978e-08
-2.6787e-08
2.05276e-08
-3.29885e-08
2.32276e-08
-3.97779e-08
2.57684e-08
-4.71165e-08
2.81302e-08
-5.49627e-08
3.03011e-08
-6.3273e-08
3.22754e-08
-7.20034e-08
3.4052e-08
-8.111e-08
3.56338e-08
-9.05497e-08
3.70266e-08
-1.00281e-07
3.82381e-08
-1.10264e-07
3.92778e-08
-1.2046e-07
4.0156e-08
-1.30835e-07
4.08837e-08
-1.41354e-07
4.14723e-08
-1.51988e-07
4.19332e-08
-1.62707e-07
4.22775e-08
-1.73487e-07
4.25164e-08
-1.84302e-07
4.26602e-08
-1.95134e-07
4.2719e-08
-2.05961e-07
4.27021e-08
-2.16768e-07
4.26185e-08
-2.27539e-07
4.24762e-08
-2.38262e-07
4.22829e-08
-2.48924e-07
4.20454e-08
-2.59516e-07
4.177e-08
-2.70028e-07
4.14624e-08
-2.80455e-07
4.11278e-08
-2.90789e-07
4.07707e-08
-3.01026e-07
4.03954e-08
-3.1116e-07
4.00056e-08
-3.2119e-07
3.96044e-08
-3.31112e-07
3.91948e-08
-3.40925e-07
3.87794e-08
-3.50626e-07
3.83604e-08
-3.60217e-07
3.79399e-08
-3.69695e-07
3.75195e-08
-3.79062e-07
3.71009e-08
-3.88317e-07
3.66855e-08
-3.97463e-07
3.62743e-08
-4.06499e-07
3.58685e-08
-4.15427e-07
3.5469e-08
-4.24249e-07
3.50766e-08
-4.32967e-07
3.46921e-08
-4.41582e-07
3.43159e-08
-4.50097e-07
3.39488e-08
-4.58514e-07
3.35911e-08
-4.66836e-07
3.32431e-08
-4.75064e-07
3.29052e-08
-4.83202e-07
3.25776e-08
-4.91251e-07
3.22604e-08
-4.99215e-07
3.19537e-08
-5.07095e-07
3.16575e-08
-5.14895e-07
3.13715e-08
-5.22616e-07
3.10956e-08
-5.30262e-07
3.08295e-08
-5.37833e-07
3.05727e-08
-5.45333e-07
3.03247e-08
-5.52764e-07
3.00848e-08
-5.60126e-07
2.98521e-08
-5.67421e-07
2.96258e-08
-5.7465e-07
2.94047e-08
-5.81815e-07
2.91874e-08
-5.88915e-07
2.89726e-08
-5.95951e-07
2.87586e-08
-6.02922e-07
2.85436e-08
-6.09827e-07
2.83255e-08
-6.16665e-07
2.8102e-08
-6.23433e-07
2.78707e-08
-6.30129e-07
2.76289e-08
-6.36748e-07
2.73736e-08
-6.43288e-07
2.71017e-08
-6.49742e-07
2.68097e-08
-6.56105e-07
2.64939e-08
-6.62369e-07
2.61503e-08
-6.68527e-07
2.57749e-08
-6.74569e-07
2.53632e-08
-6.80485e-07
2.49104e-08
-6.86264e-07
2.44118e-08
-6.91894e-07
2.3862e-08
-6.97359e-07
2.32559e-08
-7.02646e-07
2.25877e-08
-7.07737e-07
2.18519e-08
-7.12615e-07
2.10425e-08
-7.17261e-07
2.01536e-08
-7.21653e-07
1.91791e-08
-7.2577e-07
1.81129e-08
-7.29588e-07
1.69489e-08
-7.33082e-07
1.56811e-08
-7.36227e-07
1.43035e-08
-7.38993e-07
1.28105e-08
-7.41354e-07
1.11965e-08
-7.43279e-07
9.45647e-09
-7.44737e-07
7.58559e-09
-7.45696e-07
5.57965e-09
-7.46124e-07
3.435e-09
-7.45987e-07
1.14869e-09
-7.45253e-07
-1.28146e-09
-7.43888e-07
-3.8567e-09
-7.41857e-07
-6.57731e-09
-7.39127e-07
-9.44245e-09
-7.35667e-07
-1.245e-08
-7.31443e-07
-1.55967e-08
-7.26426e-07
-1.88775e-08
-7.20586e-07
-2.22863e-08
-7.13897e-07
-2.58149e-08
-7.06334e-07
-2.94537e-08
-6.97875e-07
-3.31913e-08
-6.88501e-07
-3.70144e-08
-6.78197e-07
-4.09079e-08
-6.66953e-07
-4.48547e-08
-6.54761e-07
-4.88359e-08
-6.4162e-07
-5.28307e-08
-6.27534e-07
-5.68166e-08
-6.12511e-07
-6.07692e-08
-5.96567e-07
-6.46626e-08
-5.79723e-07
-6.84694e-08
-5.62008e-07
-7.21607e-08
-5.43456e-07
-7.57068e-08
-5.2411e-07
-7.90768e-08
-5.04019e-07
-8.22393e-08
-4.8324e-07
-8.51625e-08
-4.61836e-07
-8.78146e-08
-4.39879e-07
-9.0164e-08
-4.17447e-07
-9.21799e-08
-3.94625e-07
-9.38323e-08
-3.71505e-07
-9.50927e-08
-3.48183e-07
-9.59344e-08
-3.24764e-07
-9.63328e-08
-3.01355e-07
-9.62659e-08
-2.78069e-07
-9.57144e-08
-2.55021e-07
-9.46625e-08
-2.32331e-07
-9.30981e-08
-2.10118e-07
-9.10129e-08
-1.88502e-07
-8.84031e-08
-1.67604e-07
-8.52699e-08
-1.47541e-07
-8.16194e-08
-1.28429e-07
-7.74638e-08
-1.10376e-07
-7.28215e-08
-9.34856e-08
-6.77184e-08
-7.78518e-08
-6.21886e-08
-6.35584e-08
-5.62762e-08
-5.06757e-08
-5.00371e-08
-3.92587e-08
-4.35422e-08
-2.9344e-08
-3.68803e-08
-2.09468e-08
-3.01639e-08
-1.40583e-08
-2.35347e-08
-8.64302e-09
-1.71728e-08
-4.63665e-09
-1.13068e-08
-1.94562e-09
-6.22531e-09
-4.48332e-10
-2.2917e-09
3.71846e-12
-2.36041e-10
-1.35418e-10
-1.02788e-09
9.55585e-10
-2.44702e-09
3.02363e-09
-4.54941e-09
5.77344e-09
-7.37408e-09
8.98921e-09
-1.09439e-08
1.24965e-08
-1.52672e-08
1.61545e-08
-2.03392e-08
1.98522e-08
-2.61444e-08
2.3503e-08
-3.26579e-08
2.7041e-08
-3.98473e-08
3.0417e-08
-4.76746e-08
3.35958e-08
-5.60976e-08
3.65532e-08
-6.50712e-08
3.92747e-08
-7.45485e-08
4.17527e-08
-8.44822e-08
4.39856e-08
-9.48248e-08
4.59764e-08
-1.0553e-07
4.77317e-08
-1.16552e-07
4.92606e-08
-1.27849e-07
5.05743e-08
-1.39378e-07
5.16854e-08
-1.51101e-07
5.26071e-08
-1.62983e-07
5.33535e-08
-1.74988e-07
5.39384e-08
-1.87086e-07
5.43757e-08
-1.99249e-07
5.4679e-08
-2.1145e-07
5.48613e-08
-2.23666e-07
5.4935e-08
-2.35876e-07
5.4912e-08
-2.4806e-07
5.48032e-08
-2.60203e-07
5.4619e-08
-2.72289e-07
5.43689e-08
-2.84305e-07
5.40616e-08
-2.9624e-07
5.3705e-08
-3.08085e-07
5.33065e-08
-3.19829e-07
5.28726e-08
-3.31468e-07
5.24092e-08
-3.42994e-07
5.19216e-08
-3.54403e-07
5.14146e-08
-3.65691e-07
5.08924e-08
-3.76855e-07
5.03587e-08
-3.87893e-07
4.98169e-08
-3.98802e-07
4.927e-08
-4.09583e-07
4.87205e-08
-4.20234e-07
4.81708e-08
-4.30756e-07
4.76229e-08
-4.41149e-07
4.70786e-08
-4.51415e-07
4.65395e-08
-4.61553e-07
4.60069e-08
-4.71566e-07
4.54821e-08
-4.81456e-07
4.49662e-08