/*--------------------------------*- C++ -*----------------------------------*\
  =========                 |
  \\      /  F ield         | OpenFOAM: The Open Source CFD Toolbox
   \\    /   O peration     | Website:  https://openfoam.org
    \\  /    A nd           | Version:  7
     \\/     M anipulation  |
\*---------------------------------------------------------------------------*/
FoamFile
{
    version     2.0;
    format      ascii;
    class       volVectorField;
    location    "0.1";
    object      U;
}
// * * * * * * * * * * * * * * * * * * * * * * * * * * * * * * * * * * * * * //

dimensions      [0 1 -1 0 0 0 0];

internalField   nonuniform List<vector> 
12800
(
(4.70197e-06 -4.72229e-06 0)
(2.19668e-05 -1.08137e-05 0)
(4.74188e-05 -1.16841e-05 0)
(6.97723e-05 -9.57298e-06 0)
(8.23174e-05 -5.81412e-06 0)
(8.21005e-05 -1.27238e-06 0)
(6.76725e-05 3.53928e-06 0)
(3.85703e-05 8.29802e-06 0)
(-5.00061e-06 1.28526e-05 0)
(-6.2413e-05 1.71013e-05 0)
(-0.000132848 2.1002e-05 0)
(-0.000215304 2.45414e-05 0)
(-0.000308748 2.77151e-05 0)
(-0.000412127 3.05329e-05 0)
(-0.000524375 3.30179e-05 0)
(-0.000644486 3.51854e-05 0)
(-0.000771485 3.70502e-05 0)
(-0.000904449 3.86414e-05 0)
(-0.00104253 3.99776e-05 0)
(-0.00118494 4.10775e-05 0)
(-0.00133093 4.19716e-05 0)
(-0.00147986 4.26811e-05 0)
(-0.00163112 4.3222e-05 0)
(-0.00178418 4.36188e-05 0)
(-0.00193854 4.38904e-05 0)
(-0.0020938 4.40463e-05 0)
(-0.00224956 4.41006e-05 0)
(-0.00240549 4.40712e-05 0)
(-0.00256132 4.39703e-05 0)
(-0.00271679 4.3807e-05 0)
(-0.00287169 4.35923e-05 0)
(-0.00302584 4.33351e-05 0)
(-0.0031791 4.30402e-05 0)
(-0.00333132 4.27145e-05 0)
(-0.00348243 4.23687e-05 0)
(-0.00363232 4.20112e-05 0)
(-0.00378094 4.16438e-05 0)
(-0.00392825 4.12655e-05 0)
(-0.0040742 4.08789e-05 0)
(-0.00421877 4.04908e-05 0)
(-0.00436194 4.0105e-05 0)
(-0.00450372 3.97225e-05 0)
(-0.0046441 3.93441e-05 0)
(-0.00478308 3.89712e-05 0)
(-0.00492069 3.86039e-05 0)
(-0.00505694 3.82413e-05 0)
(-0.00519185 3.78857e-05 0)
(-0.00532545 3.75405e-05 0)
(-0.00545776 3.72072e-05 0)
(-0.00558882 3.68849e-05 0)
(-0.00571865 3.65718e-05 0)
(-0.00584729 3.62684e-05 0)
(-0.00597478 3.59765e-05 0)
(-0.00610116 3.56964e-05 0)
(-0.00622646 3.54277e-05 0)
(-0.00635073 3.51714e-05 0)
(-0.006474 3.49288e-05 0)
(-0.00659632 3.47004e-05 0)
(-0.00671774 3.44859e-05 0)
(-0.0068383 3.42839e-05 0)
(-0.00695804 3.40941e-05 0)
(-0.00707701 3.39176e-05 0)
(-0.00719526 3.37553e-05 0)
(-0.00731281 3.36064e-05 0)
(-0.00742972 3.347e-05 0)
(-0.00754603 3.33454e-05 0)
(-0.00766177 3.32324e-05 0)
(-0.00777699 3.31308e-05 0)
(-0.00789171 3.30397e-05 0)
(-0.00800596 3.29577e-05 0)
(-0.00811978 3.28837e-05 0)
(-0.00823318 3.2817e-05 0)
(-0.00834617 3.27566e-05 0)
(-0.00845878 3.27001e-05 0)
(-0.00857101 3.26446e-05 0)
(-0.00868284 3.25877e-05 0)
(-0.00879428 3.2527e-05 0)
(-0.00890528 3.24602e-05 0)
(-0.00901582 3.23843e-05 0)
(-0.00912586 3.22951e-05 0)
(-0.00923532 3.21881e-05 0)
(-0.00934415 3.20588e-05 0)
(-0.00945225 3.19033e-05 0)
(-0.00955952 3.17171e-05 0)
(-0.00966583 3.14947e-05 0)
(-0.00977105 3.12301e-05 0)
(-0.00987501 3.09173e-05 0)
(-0.00997754 3.05505e-05 0)
(-0.0100784 3.01231e-05 0)
(-0.0101774 2.96277e-05 0)
(-0.0102744 2.90563e-05 0)
(-0.0103689 2.84012e-05 0)
(-0.0104607 2.76545e-05 0)
(-0.0105495 2.68083e-05 0)
(-0.0106349 2.58539e-05 0)
(-0.0107166 2.47826e-05 0)
(-0.0107941 2.35855e-05 0)
(-0.010867 2.22539e-05 0)
(-0.0109348 2.07787e-05 0)
(-0.010997 1.91518e-05 0)
(-0.0110532 1.73653e-05 0)
(-0.0111027 1.54114e-05 0)
(-0.011145 1.32825e-05 0)
(-0.0111794 1.09709e-05 0)
(-0.0112055 8.47037e-06 0)
(-0.0112225 5.77601e-06 0)
(-0.0112299 2.88406e-06 0)
(-0.0112269 -2.08668e-07 0)
(-0.0112129 -3.50451e-06 0)
(-0.0111872 -7.00405e-06 0)
(-0.0111493 -1.07057e-05 0)
(-0.0110984 -1.46058e-05 0)
(-0.0110339 -1.86987e-05 0)
(-0.0109553 -2.29765e-05 0)
(-0.0108619 -2.74288e-05 0)
(-0.0107533 -3.20431e-05 0)
(-0.0106289 -3.68041e-05 0)
(-0.0104884 -4.16943e-05 0)
(-0.0103314 -4.66927e-05 0)
(-0.0101575 -5.17752e-05 0)
(-0.00996671 -5.69145e-05 0)
(-0.00975882 -6.2081e-05 0)
(-0.00953385 -6.72423e-05 0)
(-0.00929191 -7.23632e-05 0)
(-0.00903324 -7.74056e-05 0)
(-0.0087582 -8.23295e-05 0)
(-0.00846728 -8.70931e-05 0)
(-0.00816113 -9.16529e-05 0)
(-0.0078405 -9.59636e-05 0)
(-0.00750634 -9.99794e-05 0)
(-0.0071597 -0.000103654 0)
(-0.00680182 -0.00010694 0)
(-0.00643405 -0.000109792 0)
(-0.0060579 -0.000112167 0)
(-0.00567504 -0.00011402 0)
(-0.00528723 -0.000115311 0)
(-0.00489639 -0.000116003 0)
(-0.00450453 -0.000116062 0)
(-0.00411379 -0.000115457 0)
(-0.00372637 -0.00011416 0)
(-0.00334456 -0.000112149 0)
(-0.00297072 -0.000109404 0)
(-0.00260723 -0.000105913 0)
(-0.00225652 -0.000101667 0)
(-0.00192103 -9.66631e-05 0)
(-0.00160319 -9.08985e-05 0)
(-0.00130539 -8.43756e-05 0)
(-0.00103001 -7.71009e-05 0)
(-0.000779339 -6.90867e-05 0)
(-0.000555578 -6.03493e-05 0)
(-0.000360811 -5.09123e-05 0)
(-0.000196936 -4.08129e-05 0)
(-6.55993e-05 -3.01133e-05 0)
(3.1936e-05 -1.893e-05 0)
(9.50291e-05 -7.48387e-06 0)
(0.000124055 3.78422e-06 0)
(0.000121029 1.39916e-05 0)
(9.10495e-05 2.13634e-05 0)
(4.67511e-05 2.23758e-05 0)
(1.16501e-05 1.16642e-05 0)
(1.15189e-05 -2.21763e-05 0)
(4.42178e-05 -4.32479e-05 0)
(8.49731e-05 -4.2927e-05 0)
(0.000113271 -2.93601e-05 0)
(0.00011645 -7.81193e-06 0)
(8.77468e-05 1.81281e-05 0)
(2.32859e-05 4.6006e-05 0)
(-7.8585e-05 7.42194e-05 0)
(-0.000217913 0.000101755 0)
(-0.000393687 0.000127969 0)
(-0.000604112 0.000152486 0)
(-0.000846998 0.00017509 0)
(-0.00111986 0.00019567 0)
(-0.00142006 0.00021422 0)
(-0.00174495 0.00023076 0)
(-0.00209189 0.000245363 0)
(-0.00245832 0.000258124 0)
(-0.00284179 0.000269146 0)
(-0.00323999 0.000278545 0)
(-0.00365075 0.000286448 0)
(-0.00407207 0.00029298 0)
(-0.00450209 0.000298261 0)
(-0.00493914 0.000302414 0)
(-0.00538167 0.000305556 0)
(-0.00582833 0.000307797 0)
(-0.00627786 0.000309235 0)
(-0.00672917 0.000309968 0)
(-0.0071813 0.000310084 0)
(-0.0076334 0.000309664 0)
(-0.00808473 0.000308783 0)
(-0.00853463 0.00030751 0)
(-0.00898257 0.000305905 0)
(-0.00942808 0.00030402 0)
(-0.00987077 0.000301901 0)
(-0.0103103 0.000299596 0)
(-0.0107464 0.000297144 0)
(-0.0111789 0.000294576 0)
(-0.0116076 0.000291921 0)
(-0.0120323 0.000289201 0)
(-0.012453 0.000286439 0)
(-0.0128696 0.000283654 0)
(-0.0132821 0.000280861 0)
(-0.0136904 0.000278077 0)
(-0.0140946 0.000275312 0)
(-0.0144946 0.000272575 0)
(-0.0148906 0.000269873 0)
(-0.0152825 0.000267213 0)
(-0.0156704 0.000264605 0)
(-0.0160545 0.000262055 0)
(-0.0164347 0.000259566 0)
(-0.0168112 0.000257143 0)
(-0.017184 0.000254789 0)
(-0.0175532 0.000252509 0)
(-0.0179191 0.000250305 0)
(-0.0182816 0.000248178 0)
(-0.0186408 0.000246133 0)
(-0.018997 0.000244172 0)
(-0.0193501 0.000242299 0)
(-0.0197004 0.000240512 0)
(-0.020048 0.000238811 0)
(-0.0203929 0.000237197 0)
(-0.0207353 0.00023567 0)
(-0.0210754 0.000234229 0)
(-0.0214131 0.00023287 0)
(-0.0217487 0.000231592 0)
(-0.0220823 0.000230391 0)
(-0.022414 0.000229265 0)
(-0.0227437 0.000228207 0)
(-0.0230718 0.000227211 0)
(-0.0233981 0.00022627 0)
(-0.0237229 0.000225375 0)
(-0.0240461 0.000224517 0)
(-0.0243678 0.000223685 0)
(-0.0246879 0.000222865 0)
(-0.0250066 0.000222041 0)
(-0.0253237 0.000221197 0)
(-0.0256393 0.000220315 0)
(-0.0259532 0.000219374 0)
(-0.0262653 0.000218352 0)
(-0.0265755 0.000217223 0)
(-0.0268835 0.000215961 0)
(-0.0271893 0.000214536 0)
(-0.0274925 0.000212919 0)
(-0.0277927 0.000211076 0)
(-0.0280898 0.000208971 0)
(-0.0283831 0.000206566 0)
(-0.0286723 0.000203821 0)
(-0.0289569 0.000200695 0)
(-0.0292362 0.000197143 0)
(-0.0295096 0.000193118 0)
(-0.0297763 0.000188571 0)
(-0.0300357 0.00018345 0)
(-0.0302868 0.000177705 0)
(-0.0305287 0.000171282 0)
(-0.0307604 0.000164128 0)
(-0.0309808 0.000156187 0)
(-0.0311888 0.000147404 0)
(-0.0313831 0.000137724 0)
(-0.0315624 0.000127093 0)
(-0.0317254 0.000115459 0)
(-0.0318705 0.000102772 0)
(-0.0319963 8.89842e-05 0)
(-0.0321012 7.40505e-05 0)
(-0.0321836 5.79309e-05 0)
(-0.0322417 4.05901e-05 0)
(-0.0322739 2.19996e-05 0)
(-0.0322784 2.13781e-06 0)
(-0.0322534 -1.90093e-05 0)
(-0.0321972 -4.1447e-05 0)
(-0.032108 -6.51702e-05 0)
(-0.0319839 -9.01616e-05 0)
(-0.0318234 -0.000116391 0)
(-0.0316247 -0.000143816 0)
(-0.0313862 -0.000172379 0)
(-0.0311065 -0.000202008 0)
(-0.0307842 -0.000232615 0)
(-0.030418 -0.000264094 0)
(-0.0300069 -0.000296323 0)
(-0.02955 -0.000329161 0)
(-0.0290466 -0.00036245 0)
(-0.0284963 -0.000396014 0)
(-0.0278988 -0.000429659 0)
(-0.0272543 -0.000463175 0)
(-0.0265633 -0.000496334 0)
(-0.0258263 -0.000528895 0)
(-0.0250446 -0.0005606 0)
(-0.0242195 -0.000591184 0)
(-0.0233528 -0.000620369 0)
(-0.0224469 -0.000647871 0)
(-0.0215042 -0.000673402 0)
(-0.0205277 -0.00069667 0)
(-0.0195209 -0.000717387 0)
(-0.0184874 -0.000735267 0)
(-0.0174316 -0.000750032 0)
(-0.0163579 -0.000761418 0)
(-0.0152713 -0.000769173 0)
(-0.0141768 -0.000773065 0)
(-0.0130801 -0.000772881 0)
(-0.011987 -0.000768436 0)
(-0.0109034 -0.000759567 0)
(-0.00983567 -0.00074614 0)
(-0.00879005 -0.000728054 0)
(-0.00777307 -0.000705239 0)
(-0.00679126 -0.000677661 0)
(-0.00585117 -0.000645319 0)
(-0.00495927 -0.000608247 0)
(-0.00412194 -0.000566519 0)
(-0.0033454 -0.000520252 0)
(-0.00263557 -0.000469619 0)
(-0.00199804 -0.000414856 0)
(-0.0014379 -0.000356292 0)
(-0.000959573 -0.000294396 0)
(-0.000566552 -0.000229855 0)
(-0.000261016 -0.000163714 0)
(-4.32196e-05 -9.76209e-05 0)
(8.93904e-05 -3.42649e-05 0)
(0.000143383 2.18942e-05 0)
(0.000131395 6.33978e-05 0)
(7.77334e-05 7.78535e-05 0)
(2.22626e-05 4.66691e-05 0)
(1.30086e-05 -4.91263e-05 0)
(4.56791e-05 -8.47082e-05 0)
(7.85243e-05 -7.50615e-05 0)
(8.73115e-05 -3.62706e-05 0)
(5.68062e-05 2.12306e-05 0)
(-2.17598e-05 8.97656e-05 0)
(-0.000153671 0.000163728 0)
(-0.000341445 0.000239241 0)
(-0.000585463 0.000313602 0)
(-0.000884519 0.000385064 0)
(-0.00123635 0.00045246 0)
(-0.00163792 0.000515069 0)
(-0.00208574 0.000572521 0)
(-0.00257603 0.000624629 0)
(-0.0031049 0.000671395 0)
(-0.00366843 0.000712944 0)
(-0.00426277 0.00074946 0)
(-0.00488421 0.000781195 0)
(-0.0055292 0.000808444 0)
(-0.0061944 0.00083151 0)
(-0.00687669 0.000850714 0)
(-0.00757319 0.000866384 0)
(-0.00828122 0.000878837 0)
(-0.00899836 0.000888382 0)
(-0.00972242 0.000895321 0)
(-0.0104514 0.000899933 0)
(-0.0111836 0.000902484 0)
(-0.0119173 0.00090322 0)
(-0.0126513 0.000902371 0)
(-0.0133842 0.000900145 0)
(-0.0141151 0.000896735 0)
(-0.0148429 0.000892317 0)
(-0.015567 0.000887044 0)
(-0.0162866 0.000881055 0)
(-0.0170011 0.000874476 0)
(-0.0177102 0.000867418 0)
(-0.0184134 0.000859979 0)
(-0.0191105 0.000852244 0)
(-0.0198011 0.000844287 0)
(-0.0204851 0.000836174 0)
(-0.0211623 0.00082796 0)
(-0.0218328 0.000819693 0)
(-0.0224964 0.00081142 0)
(-0.0231531 0.000803176 0)
(-0.0238029 0.000794992 0)
(-0.0244459 0.000786895 0)
(-0.0250821 0.000778908 0)
(-0.0257117 0.000771054 0)
(-0.0263347 0.00076335 0)
(-0.0269513 0.000755811 0)
(-0.0275615 0.000748452 0)
(-0.0281655 0.000741287 0)
(-0.0287635 0.000734327 0)
(-0.0293557 0.00072758 0)
(-0.0299421 0.000721053 0)
(-0.030523 0.000714756 0)
(-0.0310986 0.000708694 0)
(-0.0316691 0.000702873 0)
(-0.0322345 0.000697294 0)
(-0.0327952 0.000691959 0)
(-0.0333513 0.000686868 0)
(-0.033903 0.00068202 0)
(-0.0344505 0.00067741 0)
(-0.034994 0.000673031 0)
(-0.0355336 0.000668877 0)
(-0.0360695 0.000664938 0)
(-0.0366019 0.000661201 0)
(-0.037131 0.000657651 0)
(-0.0376568 0.000654267 0)
(-0.0381795 0.000651029 0)
(-0.0386991 0.000647909 0)
(-0.0392158 0.00064488 0)
(-0.0397296 0.000641906 0)
(-0.0402404 0.000638949 0)
(-0.0407484 0.000635963 0)
(-0.0412534 0.000632902 0)
(-0.0417553 0.000629712 0)
(-0.042254 0.000626334 0)
(-0.0427493 0.000622702 0)
(-0.0432409 0.000618745 0)
(-0.0437286 0.000614386 0)
(-0.044212 0.000609542 0)
(-0.0446906 0.000604127 0)
(-0.0451639 0.000598043 0)
(-0.0456314 0.00059119 0)
(-0.0460924 0.000583459 0)
(-0.046546 0.000574736 0)
(-0.0469915 0.000564903 0)
(-0.0474279 0.000553834 0)
(-0.0478542 0.000541396 0)
(-0.0482692 0.000527454 0)
(-0.0486717 0.000511864 0)
(-0.0490602 0.000494484 0)
(-0.0494333 0.000475165 0)
(-0.0497895 0.000453756 0)
(-0.0501269 0.000430107 0)
(-0.0504437 0.000404066 0)
(-0.0507381 0.000375481 0)
(-0.0510079 0.000344207 0)
(-0.051251 0.000310098 0)
(-0.0514651 0.00027302 0)
(-0.0516479 0.000232844 0)
(-0.0517968 0.000189451 0)
(-0.0519093 0.000142736 0)
(-0.0519829 9.26084e-05 0)
(-0.0520147 3.89955e-05 0)
(-0.0520023 -1.81551e-05 0)
(-0.0519427 -7.8873e-05 0)
(-0.0518332 -0.000143162 0)
(-0.0516712 -0.000210997 0)
(-0.0514539 -0.000282321 0)
(-0.0511787 -0.000357041 0)
(-0.0508431 -0.000435026 0)
(-0.0504446 -0.000516108 0)
(-0.0499811 -0.000600075 0)
(-0.0494505 -0.000686671 0)
(-0.0488509 -0.000775594 0)
(-0.0481807 -0.000866494 0)
(-0.0474388 -0.000958974 0)
(-0.046624 -0.00105258 0)
(-0.0457359 -0.00114683 0)
(-0.0447742 -0.00124117 0)
(-0.0437393 -0.00133502 0)
(-0.0426318 -0.00142774 0)
(-0.041453 -0.00151865 0)
(-0.0402047 -0.00160706 0)
(-0.0388891 -0.00169222 0)
(-0.0375092 -0.00177336 0)
(-0.0360685 -0.00184971 0)
(-0.034571 -0.00192047 0)
(-0.0330216 -0.00198483 0)
(-0.0314254 -0.002042 0)
(-0.0297884 -0.00209121 0)
(-0.028117 -0.0021317 0)
(-0.0264184 -0.00216273 0)
(-0.0247002 -0.00218363 0)
(-0.0229703 -0.00219377 0)
(-0.0212374 -0.00219255 0)
(-0.0195104 -0.0021795 0)
(-0.0177986 -0.00215416 0)
(-0.0161115 -0.00211619 0)
(-0.014459 -0.00206533 0)
(-0.012851 -0.00200141 0)
(-0.0112976 -0.00192437 0)
(-0.00980858 -0.00183425 0)
(-0.00839393 -0.0017312 0)
(-0.00706328 -0.00161551 0)
(-0.0058259 -0.0014876 0)
(-0.00469061 -0.0013481 0)
(-0.00366556 -0.00119782 0)
(-0.00275803 -0.00103789 0)
(-0.00197411 -0.000869899 0)
(-0.00131832 -0.000696029 0)
(-0.00079309 -0.000519444 0)
(-0.000397919 -0.000344781 0)
(-0.000128372 -0.000178987 0)
(2.5231e-05 -3.25632e-05 0)
(7.96692e-05 7.87315e-05 0)
(6.35796e-05 0.000131512 0)
(2.12254e-05 9.07638e-05 0)
(1.07031e-05 -7.32281e-05 0)
(3.21272e-05 -0.000114739 0)
(4.03186e-05 -8.43855e-05 0)
(1.12005e-05 -6.97199e-06 0)
(-7.10237e-05 0.000101449 0)
(-0.000215945 0.000228755 0)
(-0.000429451 0.000365863 0)
(-0.000714446 0.000506136 0)
(-0.00107142 0.000644909 0)
(-0.00149905 0.000778889 0)
(-0.00199471 0.000905863 0)
(-0.00255476 0.00102441 0)
(-0.00317499 0.00113368 0)
(-0.00385074 0.00123323 0)
(-0.00457715 0.00132297 0)
(-0.00534928 0.00140301 0)
(-0.00616225 0.00147365 0)
(-0.0070113 0.0015353 0)
(-0.00789185 0.00158845 0)
(-0.00879956 0.00163363 0)
(-0.00973035 0.00167144 0)
(-0.0106804 0.00170246 0)
(-0.0116462 0.00172726 0)
(-0.0126245 0.00174643 0)
(-0.0136125 0.00176051 0)
(-0.0146073 0.00177005 0)
(-0.0156067 0.00177553 0)
(-0.0166084 0.00177744 0)
(-0.0176107 0.0017762 0)
(-0.0186117 0.00177222 0)
(-0.0196101 0.00176586 0)
(-0.0206045 0.00175746 0)
(-0.0215939 0.00174733 0)
(-0.0225773 0.00173574 0)
(-0.0235539 0.00172293 0)
(-0.0245231 0.00170911 0)
(-0.0254842 0.00169449 0)
(-0.0264368 0.00167924 0)
(-0.0273806 0.0016635 0)
(-0.0283153 0.0016474 0)
(-0.0292406 0.00163106 0)
(-0.0301565 0.00161458 0)
(-0.0310627 0.00159804 0)
(-0.0319594 0.00158153 0)
(-0.0328465 0.0015651 0)
(-0.033724 0.00154881 0)
(-0.034592 0.00153272 0)
(-0.0354506 0.00151687 0)
(-0.0362999 0.0015013 0)
(-0.0371401 0.00148603 0)
(-0.0379714 0.0014711 0)
(-0.0387939 0.00145654 0)
(-0.0396077 0.00144237 0)
(-0.0404133 0.0014286 0)
(-0.0412107 0.00141525 0)
(-0.0420001 0.00140235 0)
(-0.0427819 0.00138989 0)
(-0.0435563 0.0013779 0)
(-0.0443235 0.00136637 0)
(-0.0450838 0.0013553 0)
(-0.0458374 0.00134471 0)
(-0.0465846 0.00133457 0)
(-0.0473256 0.0013249 0)
(-0.0480606 0.00131566 0)
(-0.04879 0.00130685 0)
(-0.0495139 0.00129845 0)
(-0.0502325 0.00129042 0)
(-0.050946 0.00128275 0)
(-0.0516545 0.00127538 0)
(-0.0523584 0.00126828 0)
(-0.0530575 0.0012614 0)
(-0.0537521 0.00125467 0)
(-0.0544421 0.00124802 0)
(-0.0551276 0.00124138 0)
(-0.0558086 0.00123466 0)
(-0.0564849 0.00122778 0)
(-0.0571564 0.00122061 0)
(-0.0578229 0.00121305 0)
(-0.0584841 0.00120498 0)
(-0.0591397 0.00119624 0)
(-0.0597893 0.0011867 0)
(-0.0604323 0.00117618 0)
(-0.0610681 0.00116453 0)
(-0.061696 0.00115156 0)
(-0.0623152 0.00113706 0)
(-0.0629249 0.00112083 0)
(-0.0635239 0.00110266 0)
(-0.0641112 0.00108231 0)
(-0.0646854 0.00105953 0)
(-0.0652451 0.00103409 0)
(-0.0657888 0.00100571 0)
(-0.0663147 0.000974126 0)
(-0.0668211 0.000939065 0)
(-0.067306 0.000900245 0)
(-0.0677672 0.000857381 0)
(-0.0682024 0.000810186 0)
(-0.0686092 0.000758373 0)
(-0.0689851 0.000701661 0)
(-0.0693272 0.000639773 0)
(-0.0696328 0.000572442 0)
(-0.0698987 0.000499415 0)
(-0.070122 0.000420453 0)
(-0.0702993 0.00033534 0)
(-0.0704274 0.000243883 0)
(-0.0705027 0.000145921 0)
(-0.0705218 4.13265e-05 0)
(-0.0704811 -6.99895e-05 0)
(-0.0703772 -0.000188071 0)
(-0.0702064 -0.000312911 0)
(-0.0699651 -0.000444449 0)
(-0.06965 -0.00058256 0)
(-0.0692576 -0.000727056 0)
(-0.0687847 -0.000877676 0)
(-0.0682282 -0.00103408 0)
(-0.0675853 -0.00119586 0)
(-0.0668533 -0.00136251 0)
(-0.0660299 -0.00153345 0)
(-0.0651132 -0.001708 0)
(-0.0641016 -0.00188539 0)
(-0.0629939 -0.00206477 0)
(-0.0617895 -0.00224519 0)
(-0.0604883 -0.0024256 0)
(-0.0590906 -0.00260489 0)
(-0.0575977 -0.00278186 0)
(-0.0560112 -0.00295523 0)
(-0.0543334 -0.00312365 0)
(-0.0525677 -0.00328573 0)
(-0.0507177 -0.00344002 0)
(-0.0487883 -0.00358504 0)
(-0.0467848 -0.0037193 0)
(-0.0447134 -0.00384128 0)
(-0.0425811 -0.0039495 0)
(-0.0403957 -0.00404249 0)
(-0.0381658 -0.00411881 0)
(-0.0359005 -0.00417712 0)
(-0.0336098 -0.00421614 0)
(-0.0313042 -0.00423467 0)
(-0.0289948 -0.00423164 0)
(-0.0266934 -0.00420613 0)
(-0.0244121 -0.00415733 0)
(-0.0221632 -0.0040846 0)
(-0.0199594 -0.00398749 0)
(-0.0178137 -0.00386572 0)
(-0.015739 -0.00371921 0)
(-0.0137481 -0.0035481 0)
(-0.0118537 -0.00335278 0)
(-0.0100681 -0.00313388 0)
(-0.00840302 -0.00289234 0)
(-0.00686966 -0.00262949 0)
(-0.00547809 -0.0023471 0)
(-0.00423721 -0.00204754 0)
(-0.00315432 -0.00173403 0)
(-0.00223462 -0.00141093 0)
(-0.00148062 -0.00108428 0)
(-0.000891357 -0.000762553 0)
(-0.00046136 -0.000457765 0)
(-0.000179476 -0.000187102 0)
(-2.73071e-05 2.51174e-05 0)
(2.36427e-05 0.000144735 0)
(1.40648e-05 0.000120904 0)
(6.63651e-06 -8.73519e-05 0)
(9.85122e-06 -0.000119732 0)
(-1.83976e-05 -5.47164e-05 0)
(-9.89677e-05 7.51196e-05 0)
(-0.000246587 0.000248297 0)
(-0.000470755 0.00044838 0)
(-0.000777319 0.00066275 0)
(-0.00116907 0.00088204 0)
(-0.00164637 0.00109936 0)
(-0.00220768 0.00130977 0)
(-0.00284998 0.00150985 0)
(-0.0035692 0.00169728 0)
(-0.00436049 0.00187062 0)
(-0.0052185 0.00202909 0)
(-0.00613761 0.00217242 0)
(-0.00711206 0.00230068 0)
(-0.00813613 0.00241424 0)
(-0.00920417 0.00251367 0)
(-0.0103108 0.00259967 0)
(-0.0114507 0.00267305 0)
(-0.012619 0.00273466 0)
(-0.0138112 0.0027854 0)
(-0.015023 0.00282617 0)
(-0.0162504 0.00285786 0)
(-0.0174898 0.00288132 0)
(-0.0187379 0.00289739 0)
(-0.0199918 0.00290686 0)
(-0.0212488 0.00291046 0)
(-0.0225066 0.0029089 0)
(-0.023763 0.00290281 0)
(-0.0250161 0.00289279 0)
(-0.0262644 0.00287936 0)
(-0.0275064 0.00286302 0)
(-0.028741 0.00284423 0)
(-0.029967 0.00282336 0)
(-0.0311837 0.00280079 0)
(-0.0323902 0.00277682 0)
(-0.0335859 0.00275173 0)
(-0.0347704 0.00272578 0)
(-0.0359434 0.00269918 0)
(-0.0371044 0.00267213 0)
(-0.0382533 0.00264479 0)
(-0.03939 0.00261731 0)
(-0.0405143 0.00258982 0)
(-0.0416262 0.00256242 0)
(-0.0427259 0.00253523 0)
(-0.0438133 0.00250831 0)
(-0.0448885 0.00248176 0)
(-0.0459517 0.00245563 0)
(-0.0470031 0.00242998 0)
(-0.0480428 0.00240486 0)
(-0.0490711 0.00238032 0)
(-0.0500882 0.0023564 0)
(-0.0510944 0.00233312 0)
(-0.05209 0.00231052 0)
(-0.0530751 0.00228862 0)
(-0.0540502 0.00226744 0)
(-0.0550155 0.002247 0)
(-0.0559713 0.0022273 0)
(-0.056918 0.00220834 0)
(-0.0578557 0.00219014 0)
(-0.0587849 0.00217267 0)
(-0.0597058 0.00215593 0)
(-0.0606188 0.00213989 0)
(-0.0615241 0.00212454 0)
(-0.0624219 0.00210982 0)
(-0.0633126 0.00209571 0)
(-0.0641963 0.00208213 0)
(-0.0650732 0.00206904 0)
(-0.0659435 0.00205636 0)
(-0.0668074 0.00204399 0)
(-0.0676649 0.00203185 0)
(-0.0685161 0.00201982 0)
(-0.069361 0.00200777 0)
(-0.0701995 0.00199556 0)
(-0.0710314 0.00198304 0)
(-0.0718567 0.00197004 0)
(-0.0726749 0.00195637 0)
(-0.0734858 0.00194182 0)
(-0.074289 0.00192617 0)
(-0.0750837 0.00190918 0)
(-0.0758695 0.00189058 0)
(-0.0766456 0.00187011 0)
(-0.077411 0.00184745 0)
(-0.0781648 0.00182231 0)
(-0.0789058 0.00179433 0)
(-0.0796327 0.00176317 0)
(-0.0803441 0.00172847 0)
(-0.0810384 0.00168983 0)
(-0.0817139 0.00164685 0)
(-0.0823687 0.00159911 0)
(-0.0830006 0.00154619 0)
(-0.0836074 0.00148766 0)
(-0.0841866 0.00142305 0)
(-0.0847357 0.00135193 0)
(-0.0852519 0.00127383 0)
(-0.0857321 0.00118832 0)
(-0.0861732 0.00109494 0)
(-0.086572 0.000993271 0)
(-0.0869248 0.000882885 0)
(-0.0872282 0.000763391 0)
(-0.0874782 0.000634421 0)
(-0.087671 0.000495642 0)
(-0.0878025 0.000346761 0)
(-0.0878686 0.000187535 0)
(-0.0878652 1.77758e-05 0)
(-0.0877879 -0.000162641 0)
(-0.0876324 -0.000353769 0)
(-0.0873946 -0.000555581 0)
(-0.0870702 -0.000767958 0)
(-0.086655 -0.000990689 0)
(-0.0861451 -0.00122345 0)
(-0.0855366 -0.00146582 0)
(-0.0848259 -0.00171724 0)
(-0.0840095 -0.00197703 0)
(-0.0830845 -0.00224438 0)
(-0.0820482 -0.00251836 0)
(-0.0808982 -0.00279786 0)
(-0.0796328 -0.00308166 0)
(-0.0782507 -0.0033684 0)
(-0.0767512 -0.00365656 0)
(-0.0751344 -0.00394448 0)
(-0.0734008 -0.00423039 0)
(-0.0715518 -0.00451237 0)
(-0.0695896 -0.00478842 0)
(-0.0675173 -0.00505639 0)
(-0.0653386 -0.00531408 0)
(-0.0630584 -0.00555922 0)
(-0.0606823 -0.00578946 0)
(-0.058217 -0.00600244 0)
(-0.0556699 -0.0061958 0)
(-0.0530494 -0.00636718 0)
(-0.0503651 -0.00651428 0)
(-0.0476272 -0.00663487 0)
(-0.0448467 -0.0067268 0)
(-0.0420357 -0.00678808 0)
(-0.0392068 -0.00681686 0)
(-0.0363734 -0.00681145 0)
(-0.0335494 -0.00677041 0)
(-0.0307494 -0.0066925 0)
(-0.0279882 -0.00657676 0)
(-0.025281 -0.0064225 0)
(-0.0226432 -0.00622934 0)
(-0.0200902 -0.00599722 0)
(-0.0176372 -0.00572646 0)
(-0.0152993 -0.00541775 0)
(-0.0130908 -0.00507224 0)
(-0.0110258 -0.0046916 0)
(-0.00911703 -0.00427809 0)
(-0.00737628 -0.00383473 0)
(-0.00581374 -0.00336551 0)
(-0.00443764 -0.00287568 0)
(-0.0032538 -0.00237221 0)
(-0.002265 -0.00186445 0)
(-0.00147025 -0.00136503 0)
(-0.000863997 -0.000891188 0)
(-0.000435005 -0.000466561 0)
(-0.000165154 -0.000123278 0)
(-2.92318e-05 9.51369e-05 0)
(4.40732e-06 0.000125273 0)
(1.8277e-06 -8.81367e-05 0)
(-1.71956e-05 -9.18329e-05 0)
(-8.97077e-05 2.42126e-05 0)
(-0.00023131 0.000221336 0)
(-0.000454381 0.000473246 0)
(-0.000767644 0.000759496 0)
(-0.00117626 0.0010642 0)
(-0.00168254 0.00137525 0)
(-0.00228643 0.00168359 0)
(-0.00298597 0.00198259 0)
(-0.00377774 0.00226748 0)
(-0.00465717 0.00253501 0)
(-0.00561888 0.00278307 0)
(-0.00665694 0.00301044 0)
(-0.00776508 0.00321662 0)
(-0.00893685 0.00340161 0)
(-0.0101658 0.00356584 0)
(-0.0114456 0.00371 0)
(-0.0127701 0.00383503 0)
(-0.0141333 0.00394199 0)
(-0.0155296 0.00403207 0)
(-0.0169538 0.00410647 0)
(-0.0184009 0.00416646 0)
(-0.0198663 0.00421327 0)
(-0.0213459 0.0042481 0)
(-0.0228357 0.00427215 0)
(-0.0243324 0.00428651 0)
(-0.0258328 0.00429225 0)
(-0.0273341 0.00429037 0)
(-0.0288337 0.00428178 0)
(-0.0303294 0.00426734 0)
(-0.0318194 0.00424783 0)
(-0.0333019 0.00422395 0)
(-0.0347754 0.00419635 0)
(-0.0362386 0.00416562 0)
(-0.0376906 0.00413228 0)
(-0.0391303 0.00409679 0)
(-0.040557 0.00405958 0)
(-0.0419701 0.004021 0)
(-0.0433692 0.00398139 0)
(-0.0447537 0.00394103 0)
(-0.0461236 0.00390017 0)
(-0.0474784 0.00385905 0)
(-0.0488182 0.00381784 0)
(-0.0501429 0.00377673 0)
(-0.0514525 0.00373586 0)
(-0.0527471 0.00369536 0)
(-0.0540267 0.00365534 0)
(-0.0552916 0.00361592 0)
(-0.0565418 0.00357717 0)
(-0.0577777 0.00353918 0)
(-0.0589995 0.00350201 0)
(-0.0602075 0.00346572 0)
(-0.0614019 0.00343037 0)
(-0.062583 0.00339599 0)
(-0.0637513 0.00336262 0)
(-0.0649069 0.00333029 0)
(-0.0660504 0.00329903 0)
(-0.067182 0.00326884 0)
(-0.0683021 0.00323973 0)
(-0.069411 0.0032117 0)
(-0.0705091 0.00318473 0)
(-0.0715968 0.00315881 0)
(-0.0726743 0.00313391 0)
(-0.0737421 0.00310997 0)
(-0.0748004 0.00308696 0)
(-0.0758495 0.0030648 0)
(-0.0768896 0.00304341 0)
(-0.077921 0.00302269 0)
(-0.0789439 0.00300254 0)
(-0.0799583 0.00298283 0)
(-0.0809645 0.00296341 0)
(-0.0819624 0.00294411 0)
(-0.0829521 0.00292475 0)
(-0.0839334 0.00290513 0)
(-0.0849061 0.00288501 0)
(-0.0858701 0.00286414 0)
(-0.086825 0.00284225 0)
(-0.0877703 0.00281903 0)
(-0.0887055 0.00279417 0)
(-0.08963 0.0027673 0)
(-0.090543 0.00273806 0)
(-0.0914435 0.00270603 0)
(-0.0923306 0.00267078 0)
(-0.093203 0.00263186 0)
(-0.0940594 0.00258879 0)
(-0.0948982 0.00254104 0)
(-0.0957178 0.0024881 0)
(-0.0965162 0.0024294 0)
(-0.0972916 0.00236436 0)
(-0.0980415 0.00229238 0)
(-0.0987636 0.00221286 0)
(-0.0994552 0.00212516 0)
(-0.100113 0.00202865 0)
(-0.100735 0.00192268 0)
(-0.101318 0.0018066 0)
(-0.101857 0.00167979 0)
(-0.10235 0.0015416 0)
(-0.102792 0.00139143 0)
(-0.103179 0.00122869 0)
(-0.103508 0.00105283 0)
(-0.103773 0.000863324 0)
(-0.103971 0.000659718 0)
(-0.104096 0.000441605 0)
(-0.104145 0.000208655 0)
(-0.104111 -3.93836e-05 0)
(-0.103991 -0.00030267 0)
(-0.10378 -0.000581259 0)
(-0.103472 -0.00087509 0)
(-0.103062 -0.00118397 0)
(-0.102547 -0.00150758 0)
(-0.101921 -0.00184542 0)
(-0.101181 -0.00219688 0)
(-0.100321 -0.00256112 0)
(-0.0993389 -0.00293717 0)
(-0.0982305 -0.00332384 0)
(-0.096993 -0.00371976 0)
(-0.0956238 -0.00412336 0)
(-0.094121 -0.00453286 0)
(-0.0924832 -0.00494629 0)
(-0.0907097 -0.00536149 0)
(-0.0888006 -0.00577607 0)
(-0.0867567 -0.00618748 0)
(-0.0845798 -0.00659301 0)
(-0.0822724 -0.00698975 0)
(-0.0798379 -0.00737468 0)
(-0.077281 -0.00774464 0)
(-0.0746072 -0.00809638 0)
(-0.071823 -0.00842659 0)
(-0.068936 -0.00873189 0)
(-0.0659549 -0.00900892 0)
(-0.0628894 -0.00925434 0)
(-0.0597503 -0.00946487 0)
(-0.0565494 -0.00963735 0)
(-0.0532994 -0.00976875 0)
(-0.050014 -0.00985623 0)
(-0.0467078 -0.00989716 0)
(-0.0433959 -0.0098892 0)
(-0.0400943 -0.00983029 0)
(-0.0368197 -0.00971872 0)
(-0.0335889 -0.00955314 0)
(-0.0304193 -0.00933264 0)
(-0.0273283 -0.00905673 0)
(-0.0243334 -0.00872542 0)
(-0.021452 -0.00833925 0)
(-0.018701 -0.00789937 0)
(-0.0160967 -0.00740755 0)
(-0.0136548 -0.00686633 0)
(-0.0113896 -0.00627916 0)
(-0.00931434 -0.00565054 0)
(-0.00744024 -0.00498632 0)
(-0.00577647 -0.00429408 0)
(-0.00432956 -0.00358365 0)
(-0.00310284 -0.00286786 0)
(-0.0020959 -0.00216355 0)
(-0.00130389 -0.00149294 0)
(-0.000716661 -0.000885542 0)
(-0.000317792 -0.000380132 0)
(-8.74256e-05 -2.76866e-05 0)
(-5.9352e-06 9.9765e-05 0)
(-3.23899e-06 -7.39985e-05 0)
(-4.67164e-05 -2.63565e-05 0)
(-0.000168389 0.000159249 0)
(-0.000377429 0.000439679 0)
(-0.000683095 0.000784651 0)
(-0.00109264 0.00117028 0)
(-0.00161017 0.00157766 0)
(-0.00223708 0.0019922 0)
(-0.00297259 0.00240277 0)
(-0.00381419 0.00280105 0)
(-0.0047579 0.003181 0)
(-0.00579864 0.00353836 0)
(-0.00693049 0.00387031 0)
(-0.00814697 0.0041752 0)
(-0.00944123 0.00445222 0)
(-0.0108062 0.0047013 0)
(-0.0122349 0.00492287 0)
(-0.0137203 0.00511779 0)
(-0.0152556 0.00528718 0)
(-0.0168343 0.00543242 0)
(-0.0184501 0.00555499 0)
(-0.0200972 0.00565647 0)
(-0.02177 0.00573848 0)
(-0.0234634 0.00580263 0)
(-0.0251727 0.00585054 0)
(-0.0268936 0.00588374 0)
(-0.0286221 0.00590371 0)
(-0.0303547 0.00591188 0)
(-0.0320881 0.00590955 0)
(-0.0338195 0.00589798 0)
(-0.0355463 0.0058783 0)
(-0.0372663 0.00585158 0)
(-0.0389775 0.00581877 0)
(-0.0406782 0.00578076 0)
(-0.0423669 0.00573833 0)
(-0.0440423 0.00569221 0)
(-0.0457033 0.00564303 0)
(-0.0473492 0.00559137 0)
(-0.048979 0.00553774 0)
(-0.0505923 0.00548259 0)
(-0.0521885 0.00542632 0)
(-0.0537674 0.00536929 0)
(-0.0553285 0.0053118 0)
(-0.0568719 0.00525413 0)
(-0.0583974 0.00519652 0)
(-0.059905 0.00513919 0)
(-0.0613948 0.00508231 0)
(-0.0628668 0.00502605 0)
(-0.0643212 0.00497056 0)
(-0.0657583 0.00491596 0)
(-0.0671783 0.00486236 0)
(-0.0685814 0.00480986 0)
(-0.069968 0.00475855 0)
(-0.0713383 0.00470849 0)
(-0.0726928 0.00465974 0)
(-0.0740318 0.00461237 0)
(-0.0753557 0.0045664 0)
(-0.0766649 0.00452187 0)
(-0.0779597 0.00447879 0)
(-0.0792406 0.00443717 0)
(-0.0805081 0.00439701 0)
(-0.0817624 0.0043583 0)
(-0.083004 0.00432099 0)
(-0.0842332 0.00428504 0)
(-0.0854505 0.00425041 0)
(-0.0866562 0.00421701 0)
(-0.0878505 0.00418474 0)
(-0.0890338 0.0041535 0)
(-0.0902064 0.00412315 0)
(-0.0913683 0.00409354 0)
(-0.0925198 0.00406448 0)
(-0.093661 0.00403579 0)
(-0.0947919 0.00400722 0)
(-0.0959125 0.00397853 0)
(-0.0970226 0.00394944 0)
(-0.0981221 0.00391962 0)
(-0.0992107 0.00388873 0)
(-0.100288 0.0038564 0)
(-0.101353 0.00382222 0)
(-0.102406 0.00378574 0)
(-0.103446 0.00374649 0)
(-0.104472 0.00370394 0)
(-0.105482 0.00365756 0)
(-0.106476 0.00360676 0)
(-0.107452 0.00355091 0)
(-0.10841 0.00348936 0)
(-0.109346 0.00342143 0)
(-0.110259 0.00334639 0)
(-0.111147 0.0032635 0)
(-0.112008 0.00317197 0)
(-0.112839 0.00307101 0)
(-0.113637 0.00295978 0)
(-0.1144 0.00283746 0)
(-0.115124 0.00270318 0)
(-0.115805 0.00255609 0)
(-0.116441 0.00239532 0)
(-0.117027 0.00222004 0)
(-0.117559 0.0020294 0)
(-0.118033 0.00182259 0)
(-0.118445 0.00159884 0)
(-0.118789 0.00135742 0)
(-0.11906 0.00109765 0)
(-0.119255 0.000818935 0)
(-0.119367 0.00052075 0)
(-0.119392 0.00020267 0)
(-0.119324 -0.00013562 0)
(-0.119157 -0.000494309 0)
(-0.118887 -0.000873446 0)
(-0.118507 -0.00127292 0)
(-0.118013 -0.00169246 0)
(-0.1174 -0.0021316 0)
(-0.116662 -0.00258967 0)
(-0.115794 -0.00306578 0)
(-0.114793 -0.00355883 0)
(-0.113654 -0.00406747 0)
(-0.112373 -0.0045901 0)
(-0.110947 -0.00512486 0)
(-0.109373 -0.00566963 0)
(-0.10765 -0.00622202 0)
(-0.105775 -0.00677938 0)
(-0.103748 -0.00733878 0)
(-0.10157 -0.00789707 0)
(-0.0992405 -0.00845082 0)
(-0.0967624 -0.00899637 0)
(-0.0941384 -0.00952988 0)
(-0.0913724 -0.0100473 0)
(-0.0884695 -0.0105444 0)
(-0.0854359 -0.0110168 0)
(-0.0822788 -0.0114602 0)
(-0.0790068 -0.0118701 0)