/*--------------------------------*- C++ -*----------------------------------*\
  =========                 |
  \\      /  F ield         | OpenFOAM: The Open Source CFD Toolbox
   \\    /   O peration     | Website:  https://openfoam.org
    \\  /    A nd           | Version:  7
     \\/     M anipulation  |
\*---------------------------------------------------------------------------*/
FoamFile
{
    version     2.0;
    format      ascii;
    class       volScalarField;
    location    "0.225";
    object      p;
}
// * * * * * * * * * * * * * * * * * * * * * * * * * * * * * * * * * * * * * //

dimensions      [0 2 -2 0 0 0 0];

internalField   nonuniform List<scalar> 
12800
(
2.96171e-08
2.50437e-05
-1.34171e-05
-0.000126239
-0.000304919
-0.000539175
-0.000818034
-0.0011308
-0.00146776
-0.00182044
-0.00218154
-0.00254489
-0.00290532
-0.00325858
-0.00360116
-0.00393028
-0.00424373
-0.00453985
-0.00481739
-0.00507549
-0.00531357
-0.00553135
-0.00572877
-0.00590592
-0.00606304
-0.00620044
-0.00631852
-0.00641773
-0.00649856
-0.00656149
-0.00660702
-0.00663561
-0.0066477
-0.00664371
-0.006624
-0.00658892
-0.00653874
-0.00647368
-0.00639394
-0.00629964
-0.00619086
-0.00606765
-0.00592998
-0.00577778
-0.00561094
-0.0054293
-0.00523264
-0.00502068
-0.00479313
-0.00454959
-0.00428967
-0.00401289
-0.00371877
-0.00340676
-0.00307626
-0.00272665
-0.00235724
-0.0019673
-0.00155607
-0.00112274
-0.000666436
-0.00018624
0.000318811
0.000849723
0.00140755
0.00199338
0.00260838
0.00325374
0.00393073
0.00464064
0.00538483
0.00616468
0.00698163
0.00783719
0.00873287
0.00967028
0.010651
0.0116767
0.0127491
0.0138698
0.0150405
0.016263
0.017539
0.0188702
0.0202583
0.0217051
0.0232121
0.024781
0.0264133
0.0281104
0.0298738
0.0317047
0.0336042
0.0355734
0.037613
0.0397236
0.0419057
0.0441593
0.0464845
0.0488807
0.0513472
0.0538829
0.0564865
0.059156
0.061889
0.064683
0.0675346
0.0704401
0.0733953
0.0763953
0.0794349
0.0825082
0.0856086
0.0887292
0.0918624
0.0950001
0.0981337
0.101254
0.104352
0.107417
0.110439
0.113407
0.116311
0.11914
0.121884
0.12453
0.127068
0.129489
0.131782
0.133938
0.135947
0.137802
0.139496
0.141023
0.142376
0.143554
0.144552
0.145371
0.14601
0.146471
0.146757
0.146874
0.146829
0.146629
0.146285
0.145809
0.145213
0.144514
0.143728
0.142874
0.141975
0.141052
0.140132
0.139245
0.138423
0.137701
0.137118
0.136715
0.136531
0.136555
-2.71702e-05
-2.01951e-06
-4.10708e-05
-0.000143956
-0.00030113
-0.000505441
-0.000749013
-0.00102354
-0.00132114
-0.00163461
-0.0019576
-0.00228455
-0.00261074
-0.00293213
-0.00324538
-0.00354773
-0.00383696
-0.00411134
-0.00436952
-0.00461051
-0.00483362
-0.00503839
-0.00522459
-0.00539216
-0.00554116
-0.00567177
-0.00578422
-0.00587883
-0.00595593
-0.00601589
-0.00605908
-0.00608585
-0.00609656
-0.00609151
-0.006071
-0.00603528
-0.00598455
-0.00591899
-0.00583873
-0.00574384
-0.00563438
-0.00551033
-0.00537166
-0.00521825
-0.00504997
-0.00486665
-0.00466803
-0.00445385
-0.00422377
-0.00397741
-0.00371435
-0.00343414
-0.00313628
-0.00282021
-0.00248535
-0.00213106
-0.00175668
-0.0013615
-0.00094476
-0.000505657
-4.33389e-05
0.000443092
0.000954574
0.00149209
0.00205665
0.00264933
0.00327125
0.00392357
0.0046075
0.00532431
0.00607528
0.00686176
0.00768512
0.00854679
0.00944825
0.010391
0.0113766
0.0124066
0.0134825
0.0146061
0.0157788
0.0170023
0.0182782
0.0196081
0.0209937
0.0224365
0.0239381
0.0254998
0.0271231
0.0288094
0.0305599
0.0323757
0.0342577
0.036207
0.0382241
0.0403095
0.0424635
0.0446861
0.0469771
0.049336
0.051762
0.0542539
0.0568101
0.0594289
0.0621077
0.064844
0.0676344
0.0704753
0.0733626
0.0762914
0.0792567
0.0822528
0.0852733
0.0883114
0.09136
0.0944113
0.0974569
0.100488
0.103496
0.106471
0.109404
0.112284
0.115101
0.117845
0.120506
0.123074
0.125538
0.127889
0.130118
0.132215
0.134173
0.135985
0.137643
0.139143
0.140479
0.141649
0.142649
0.14348
0.144142
0.144637
0.144968
0.145142
0.145163
0.14504
0.144784
0.144405
0.143916
0.143332
0.142669
0.141946
0.141181
0.140396
0.139615
0.138864
0.13817
0.137562
0.13707
0.136722
0.136554
0.136578
8.08338e-06
3.45255e-05
-4.35249e-06
-0.000101897
-0.00024685
-0.000433099
-0.000654264
-0.00090346
-0.00117403
-0.00145979
-0.00175516
-0.00205517
-0.00235549
-0.00265241
-0.00294277
-0.00322392
-0.00349371
-0.00375038
-0.00399257
-0.00421925
-0.00442965
-0.00462321
-0.00479961
-0.00495867
-0.00510034
-0.00522469
-0.00533185
-0.00542203
-0.00549546
-0.0055524
-0.00559314
-0.00561794
-0.00562708
-0.00562078
-0.00559928
-0.00556276
-0.00551136
-0.00544522
-0.0053644
-0.00526895
-0.00515889
-0.00503417
-0.0048947
-0.00474039
-0.00457105
-0.00438649
-0.00418647
-0.00397067
-0.00373876
-0.00349035
-0.00322503
-0.00294232
-0.00264173
-0.00232271
-0.00198467
-0.00162699
-0.001249
-0.000850002
-0.000429259
1.40244e-05
0.000480689
0.000971614
0.00148771
0.00202994
0.00259929
0.0031968
0.00382357
0.00448072
0.00516943
0.00589091
0.00664641
0.00743723
0.0082647
0.00913019
0.0100351
0.0109809
0.0119691
0.0130011
0.0140785
0.0152028
0.0163754
0.017598
0.0188721
0.0201992
0.0215809
0.0230185
0.0245135
0.0260674
0.0276814
0.0293567
0.0310944
0.0328957
0.0347615
0.0366923
0.038689
0.0407517
0.0428809
0.0450763
0.0473377
0.0496645
0.0520558
0.0545105
0.0570269
0.0596032
0.062237
0.0649257
0.067666
0.0704542
0.0732864
0.0761579
0.0790637
0.0819981
0.0849552
0.0879283
0.0909104
0.093894
0.0968712
0.0998335
0.102772
0.105678
0.108543
0.111355
0.114106
0.116786
0.119386
0.121894
0.124303
0.126602
0.128784
0.130839
0.13276
0.13454
0.136173
0.137654
0.138978
0.140143
0.141146
0.141988
0.142668
0.14319
0.143556
0.143771
0.143843
0.143778
0.143587
0.143281
0.142871
0.142372
0.141798
0.141168
0.140499
0.139811
0.139125
0.138464
0.137852
0.137313
0.136872
0.136551
0.136385
0.136395
0.000118615
0.000135434
9.08548e-05
-7.21465e-06
-0.00014767
-0.000324818
-0.000532972
-0.00076618
-0.00101867
-0.00128504
-0.00156039
-0.00184027
-0.00212078
-0.0023985
-0.00267053
-0.0029344
-0.00318806
-0.00342981
-0.00365832
-0.00387256
-0.00407172
-0.00425523
-0.0044227
-0.00457388
-0.00470865
-0.00482701
-0.00492901
-0.00501478
-0.00508448
-0.0051383
-0.00517644
-0.00519909
-0.00520647
-0.00519875
-0.0051761
-0.00513864
-0.00508647
-0.00501966
-0.00493827
-0.0048423
-0.00473172
-0.00460645
-0.0044664
-0.00431141
-0.00414132
-0.0039559
-0.00375489
-0.00353796
-0.00330477
-0.00305492
-0.002788
-0.00250353
-0.00220101
-0.00187989
-0.00153958
-0.00117948
-0.000798918
-0.000397216
2.63661e-05
0.000472609
0.000942338
0.00143641
0.00195572
0.0025012
0.00307381
0.00367459
0.00430458
0.00496489
0.00565665
0.00638104
0.00713928
0.0079326
0.00876231
0.00962972
0.0105362
0.0114832
0.012472
0.0135041
0.014581
0.0157042
0.0168749
0.0180949
0.0193654
0.0206881
0.0220642
0.0234953
0.0249826
0.0265274
0.0281311
0.0297947
0.0315193
0.0333059
0.0351553
0.0370682
0.0390451
0.0410864
0.0431921
0.0453622
0.0475963
0.0498939
0.052254
0.0546754
0.0571566
0.0596956
0.0622902
0.0649377
0.0676349
0.0703784
0.073164
0.0759873
0.0788434
0.0817268
0.0846317
0.0875516
0.0904798
0.0934088
0.0963311
0.0992385
0.102123
0.104974
0.107785
0.110545
0.113246
0.115877
0.118429
0.120893
0.12326
0.125521
0.127667
0.129691
0.131585
0.133343
0.134958
0.136426
0.137743
0.138906
0.139913
0.140765
0.14146
0.142003
0.142396
0.142645
0.142756
0.142735
0.142594
0.142342
0.141991
0.141554
0.141046
0.140482
0.139881
0.139259
0.138636
0.138032
0.137469
0.136966
0.136545
0.136227
0.136038
0.135997
0.000297405
0.000292172
0.000234205
0.000129894
-1.17223e-05
-0.00018541
-0.000386129
-0.000608701
-0.000848124
-0.00109972
-0.00135919
-0.00162261
-0.0018865
-0.00214779
-0.00240382
-0.00265234
-0.00289144
-0.00311956
-0.0033354
-0.00353797
-0.00372646
-0.00390031
-0.00405908
-0.00420251
-0.00433042
-0.00444275
-0.00453949
-0.00462071
-0.00468651
-0.00473701
-0.00477236
-0.00479269
-0.00479814
-0.00478884
-0.0047649
-0.0047264
-0.00467338
-0.00460588
-0.00452391
-0.00442744
-0.0043164
-0.00419069
-0.00405018
-0.00389471
-0.00372408
-0.00353805
-0.00333633
-0.00311859
-0.00288447
-0.00263359
-0.0023655
-0.00207974
-0.00177579
-0.0014531
-0.00111112
-0.000749209
-0.00036674
3.69767e-05
0.000462667
0.000911099
0.00138308
0.00187944
0.00240107
0.00294886
0.00352376
0.00412677
0.00475892
0.00542128
0.00611494
0.00684105
0.00760078
0.00839533
0.00922595
0.0100939
0.0110006
0.0119472
0.0129353
0.013966
0.015041
0.0161614
0.0173287
0.0185444
0.0198099
0.0211265
0.0224956
0.0239185
0.0253966
0.026931
0.028523
0.0301736
0.0318838
0.0336546
0.0354866
0.0373806
0.039337
0.0413561
0.043438
0.0455826
0.0477895
0.0500581
0.0523875
0.0547765
0.0572236
0.0597268
0.062284
0.0648925
0.0675493
0.0702508
0.0729932
0.0757722
0.0785828
0.0814199
0.0842776
0.0871498
0.0900299
0.0929106
0.0957847
0.0986441
0.101481
0.104286
0.107051
0.109766
0.112424
0.115014
0.117527
0.119955
0.122288
0.124518
0.126636
0.128636
0.130509
0.132249
0.133852
0.135311
0.136624
0.137787
0.138799
0.13966
0.14037
0.140932
0.14135
0.141627
0.14177
0.141788
0.141688
0.14148
0.141177
0.14079
0.140334
0.139823
0.139273
0.1387
0.138122
0.137557
0.137022
0.136536
0.136117
0.135782
0.135547
0.135424
0.00053504
0.000498321
0.00042026
0.000304377
0.000156384
-1.89838e-05
-0.000217241
-0.000433953
-0.000664842
-0.000905866
-0.00115328
-0.00140369
-0.00165401
-0.00190154
-0.00214389
-0.00237903
-0.00260524
-0.00282108
-0.00302536
-0.00321715
-0.00339568
-0.00356039
-0.00371085
-0.00384678
-0.00396799
-0.00407436
-0.00416586
-0.0042425
-0.00430434
-0.00435144
-0.0043839
-0.0044018
-0.00440524
-0.00439428
-0.00436898
-0.00432938
-0.00427549
-0.00420731
-0.00412479
-0.00402788
-0.00391648
-0.00379045
-0.00364966
-0.0034939
-0.00332297
-0.00313659
-0.00293446
-0.00271625
-0.00248159
-0.00223007
-0.00196126
-0.00167468
-0.00136982
-0.00104613
-0.000703048
-0.000339969
4.37444e-05
0.00044877
0.000875825
0.00132566
0.00179907
0.00229685
0.00281988
0.00336903
0.00394523
0.00454945
0.00518267
0.00584595
0.00654035
0.00726697
0.00802693
0.00882142
0.00965163
0.0105188
0.0114242
0.0123691
0.0133549
0.0143828
0.0154542
0.0165704
0.0177327
0.0189426
0.0202014
0.0215104
0.0228709
0.0242842
0.0257516
0.0272741
0.028853
0.0304893
0.0321838
0.0339376
0.0357513
0.0376255
0.0395606
0.041557
0.0436147
0.0457336
0.0479133
0.0501533
0.0524525
0.0548099
0.057224
0.0596929
0.0622145
0.0647862
0.067405
0.0700675
0.07277
0.0755083
0.0782776
0.0810728
0.0838883
0.0867182
0.0895559
0.0923945
0.0952267
0.0980449
0.100841
0.103607
0.106333
0.109012
0.111635
0.114191
0.116674
0.119072
0.121379
0.123585
0.125682
0.127664
0.129522
0.131251
0.132846
0.1343
0.135612
0.136778
0.137797
0.138668
0.139392
0.139971
0.14041
0.140712
0.140883
0.140932
0.140865
0.140694
0.140429
0.140082
0.139665
0.139193
0.13868
0.138141
0.137592
0.137048
0.136526
0.13604
0.135606
0.135239
0.134943
0.134717
0.000821494
0.000746664
0.000643159
0.000511011
0.000352032
0.000170394
-2.98962e-05
-0.000245097
-0.000471593
-0.000705933
-0.000944903
-0.00118557
-0.00142527
-0.00166165
-0.00189262
-0.00211638
-0.00233142
-0.00253643
-0.00273037
-0.00291237
-0.00308175
-0.00323797
-0.00338064
-0.00350946
-0.00362424
-0.00372485
-0.00381124
-0.00388338
-0.00394129
-0.003985
-0.00401456
-0.00403001
-0.0040314
-0.00401876
-0.00399209
-0.0039514
-0.00389667
-0.00382784
-0.00374485
-0.0036476
-0.00353596
-0.00340978
-0.00326889
-0.00311307
-0.00294208
-0.00275564
-0.00255342
-0.0023351
-0.00210028
-0.00184855
-0.00157948
-0.00129257
-0.000987328
-0.000663206
-0.000319639
4.39683e-05
0.000428245
0.00083386
0.00126152
0.00171196
0.00218594
0.00268427
0.00320777
0.00375731
0.00433379
0.00493814
0.00557135
0.0062344
0.00692834
0.00765424
0.00841317
0.00920627
0.0100347
0.0108997
0.0118024
0.0127441
0.0137261
0.0147496
0.0158159
0.0169263
0.0180821
0.0192847
0.0205352
0.021835
0.0231853
0.0245875
0.0260426
0.0275518
0.0291162
0.0307368
0.0324145
0.0341501
0.0359444
0.0377979
0.0397111
0.0416842
0.0437173
0.0458103
0.0479629
0.0501744
0.0524441
0.0547707
0.0571529
0.059589
0.0620767
0.0646137
0.067197
0.0698235
0.0724894
0.0751906
0.0779226
0.0806804
0.0834586
0.0862513
0.0890522
0.0918547
0.0946514
0.097435
0.100198
0.102931
0.105627
0.108277
0.110872
0.113403
0.115862
0.118239
0.120527
0.122716
0.1248
0.12677
0.12862
0.130343
0.131934
0.133388
0.134703
0.135874
0.136901
0.137783
0.138521
0.139117
0.139574
0.139897
0.140092
0.140166
0.140127
0.139984
0.139747
0.139429
0.139041
0.138596
0.138107
0.137588
0.137054
0.136517
0.135993
0.135493
0.13503
0.134619
0.13425
0.133911
0.00114688
0.00102941
0.000896364
0.000744108
0.000570258
0.000378461
0.000172298
-4.51274e-05
-0.000270808
-0.000501852
-0.000735547
-0.000969391
-0.00120113
-0.00142874
-0.00165045
-0.0018647
-0.00207019
-0.00226579
-0.00245058
-0.0026238
-0.00278487
-0.00293329
-0.00306872
-0.00319088
-0.00329958
-0.00339471
-0.00347618
-0.00354398
-0.00359807
-0.00363846
-0.00366518
-0.00367822
-0.0036776
-0.00366331
-0.00363533
-0.0035936
-0.00353809
-0.00346871
-0.00338535
-0.00328789
-0.00317617
-0.00305001
-0.00290923
-0.00275358
-0.0025828
-0.00239658
-0.00219461
-0.00197652
-0.00174193
-0.00149042
-0.00122153
-0.000934786
-0.000629683
-0.000305681
3.77796e-05
0.000401287
0.000785462
0.00119096
0.00161848
0.00206874
0.00254247
0.00304047
0.00356354
0.00411252
0.00468828
0.00529174
0.00592384
0.00658554
0.00727786
0.00800181
0.00875845
0.00954887
0.0103742
0.0112356
0.0121342
0.0130713
0.014048
0.0150656
0.0161253
0.0172283
0.0183759
0.0195695
0.0208101
0.0220992
0.0234378
0.0248272
0.0262685
0.0277629
0.0293114
0.0309149
0.0325744
0.0342907
0.0360645
0.0378963
0.0397867
0.0417358
0.0437438
0.0458105
0.0479358
0.050119
0.0523593
0.0546558
0.057007
0.0594113
0.0618666
0.0643707
0.0669207
0.0695135
0.0721456
0.074813
0.0775113
0.0802357
0.0829809
0.0857412
0.0885105
0.0912821
0.0940492
0.0968044
0.0995399
0.102248
0.10492
0.107547
0.110122
0.112635
0.115077
0.117441
0.119716
0.121896
0.123973
0.125938
0.127785
0.129507
0.1311
0.132559
0.13388
0.135059
0.136097
0.136991
0.137743
0.138355
0.13883
0.139172
0.139387
0.139482
0.139464
0.139342
0.139127
0.138829
0.13846
0.138031
0.137555
0.137045
0.136513
0.135972
0.135433
0.134908
0.134407
0.133943
0.133494
0.133038
0.00150205
0.00133895
0.00117334
0.000997913
0.000806021
0.00060084
0.000385582
0.000162764
-6.51729e-05
-0.000295849
-0.000527022
-0.000756622
-0.000982765
-0.00120377
-0.00141815
-0.00162463
-0.0018221
-0.00200961
-0.00218642
-0.00235187
-0.00250547
-0.00264681
-0.00277559
-0.00289158
-0.00299462
-0.0030846
-0.00316144
-0.00322509
-0.00327554
-0.00331277
-0.00333676
-0.0033475
-0.00334497
-0.00332912
-0.00329991
-0.00325726
-0.00320107
-0.00313125
-0.00304766
-0.00295014
-0.00283852
-0.00271259
-0.00257214
-0.0024169
-0.0022466
-0.00206091
-0.0018595
-0.001642
-0.00140802
-0.00115713
-0.000888874
-0.00060277
-0.000298312
2.50284e-05
0.000367807
0.000730605
0.00111403
0.00151874
0.00194539
0.0023947
0.00286739
0.00336422
0.00388596
0.00443345
0.00500752
0.00560907
0.006239
0.00689825
0.00758779
0.00830859
0.0090617
0.00984815
0.010669
0.0115255
0.0124186
0.0133495
0.0143195
0.0153296
0.0163812
0.0174753
0.0186132
0.0197961
0.0210253
0.0223019
0.0236272
0.0250023
0.0264282
0.0279062
0.0294373
0.0310223
0.0326622
0.0343578
0.0361099
0.0379189
0.0397854
0.0417096
0.0436918
0.0457318
0.0478294
0.0499841
0.0521953
0.0544619
0.0567826
0.059156
0.0615801
0.0640527
0.0665712
0.0691324
0.0717331
0.0743695
0.0770372
0.0797317
0.0824477
0.0851798
0.0879219
0.0906676
0.0934102
0.0961424
0.0988566
0.101545
0.104199
0.106811
0.109372
0.111873
0.114306
0.116662
0.118933
0.12111
0.123185
0.125152
0.127002
0.12873
0.13033
0.131797
0.133128
0.134319
0.13537
0.136278
0.137046
0.137674
0.138166
0.138525
0.138757
0.138869
0.138868
0.138763
0.138563
0.138279
0.13792
0.137499
0.137027
0.136516
0.135977
0.135421
0.134858
0.134299
0.133752
0.133229
0.132697
0.132124
0.0018787
0.00166807
0.00146774
0.00126679
0.00105432
0.000833112
0.000606085
0.000375205
0.000142392
-9.0443e-05
-0.000321502
-0.000549118
-0.000771773
-0.000988113
-0.00119695
-0.00139725
-0.00158812
-0.00176884
-0.00193877
-0.00209744
-0.00224442
-0.00237942
-0.00250218
-0.00261255
-0.00271038
-0.00279559
-0.00286811
-0.00292791
-0.00297496
-0.00300922
-0.00303067
-0.00303927
-0.00303497
-0.00301771
-0.0029874
-0.00294396
-0.00288725
-0.00281715
-0.00273349
-0.00263609
-0.00252476
-0.00239927
-0.00225938
-0.00210481
-0.00193525
-0.00175039
-0.00154987
-0.00133332
-0.00110032
-0.000850454
-0.000583258
-0.00029825
5.07091e-06
0.000327228
0.000668769
0.00103027
0.00141232
0.00181557
0.00224066
0.00268829
0.00315915
0.00365398
0.00417354
0.00471863
0.00529007
0.0058887
0.00651543
0.00717114
0.00785676
0.00857325
0.00932159
0.0101028
0.0109179
0.011768
0.0126542
0.0135776
0.0145394
0.0155406
0.0165824
0.0176659
0.0187925
0.0199632
0.0211793
0.0224419
0.0237521
0.0251112
0.0265202
0.0279802
0.0294923
0.0310572
0.0326761
0.0343497
0.0360786
0.0378636
0.0397052
0.0416036
0.043559
0.0455715
0.0476409
0.0497668
0.0519486
0.0541854
0.0564761
0.0588192
0.0612129
0.0636551
0.0661433
0.0686748
0.0712462
0.0738538
0.0764936
0.0791612
0.0818514
0.0845589
0.0872779
0.0900022
0.0927249
0.0954391
0.0981372
0.100812
0.103454
0.106056
0.10861
0.111106
0.113535
0.115891
0.118163
0.120343
0.122424
0.124397
0.126257
0.127995
0.129607
0.131088
0.132434
0.13364
0.134707
0.135632
0.136417
0.137062
0.137571
0.137947
0.138195
0.138322
0.138334
0.138241
0.138051
0.137774
0.13742
0.137
0.136524
0.136004
0.135449
0.134871
0.134277
0.133677
0.133079
0.132492
0.131876
0.13119
0.00226937
0.00201007
0.00177352
0.00154527
0.00131021
0.00107086
0.000829876
0.00058871
0.000348809
0.000111652
-0.000121373
-0.000348982
-0.000570014
-0.000783434
-0.000988329
-0.00118392
-0.00136954
-0.00154465
-0.0017088
-0.00186162
-0.00200284
-0.00213223
-0.00224964
-0.00235494
-0.00244806
-0.00252894
-0.00259752
-0.00265379
-0.00269772
-0.00272927
-0.00274841
-0.00275507
-0.0027492
-0.0027307
-0.00269948
-0.00265542
-0.00259837
-0.00252816
-0.00244463
-0.00234755
-0.00223672
-0.00211189
-0.0019728
-0.00181915
-0.00165062
-0.00146688
-0.00126756
-0.00105229
-0.00082064
-0.000572186
-0.000306463
-2.29939e-05
0.000278718
0.00059919
0.000938959
0.00129859
0.00167868
0.00207983
0.00250269
0.00294792
0.0034162
0.00390824
0.00442478
0.00496659
0.00553446
0.00612923
0.00675173
0.00740284
0.00808344
0.00879445
0.00953682
0.0103115
0.0111196
0.0119621
0.01284
0.0137544
0.0147064
0.0156971
0.0167276
0.0177991
0.0189127
0.0200696
0.0212709
0.0225178
0.0238114
0.0251528
0.0265432
0.0279835
0.0294749
0.0310182
0.0326145
0.0342645
0.035969
0.0377286
0.0395439
0.0414153
0.0433431
0.0453272
0.0473677
0.0494643
0.0516164
0.0538232
0.0560838
0.0583968
0.0607607
0.0631733
0.0656324
0.0681354
0.0706791
0.0732599
0.0758742
0.0785173
0.0811846
0.0838709
0.0865704
0.089277
0.0919841
0.0946848
0.0973717
0.100037
0.102673
0.105271
0.107822
0.110319
0.112752
0.115112
0.117392
0.119582
0.121674
0.123661
0.125535
0.12729
0.12892
0.130419
0.131783
0.13301
0.134096
0.135041
0.135845
0.136509
0.137035
0.137428
0.137691
0.137832
0.137856
0.137771
0.137587
0.137313
0.136958
0.136533
0.136047
0.135512
0.134935
0.134328
0.133698
0.133051
0.132399
0.131748
0.131048
0.130251
0.00266727
0.0023587
0.00208493
0.00182807
0.0015689
0.00130972
0.00105299
0.00079971
0.00055088
0.00030757
7.07934e-05
-0.000158534
-0.000379586
-0.000591625
-0.000794019
-0.000986237
-0.00116784
-0.00133847
-0.00149785
-0.00164577
-0.00178205
-0.00190658
-0.00201929
-0.00212012
-0.00220905
-0.00228605
-0.00235112
-0.00240422
-0.00244536
-0.0024745
-0.00249159
-0.00249657
-0.00248935
-0.00246984
-0.00243792
-0.00239344
-0.00233624
-0.00226613
-0.00218292
-0.00208638
-0.00197627
-0.00185233
-0.00171428
-0.0015618
-0.00139457
-0.00121224
-0.00101443
-0.000800763
-0.00057081
-0.000324135
-6.02799e-05
0.000221231
0.000520888
0.000839197
0.00117669
0.00153392
0.00191146
0.00230992
0.0027299
0.00317205
0.00363703
0.00412552
0.00463823
0.00517592
0.00573934
0.00632929
0.00694659
0.00759206
0.00826656
0.00897096
0.00970619
0.0104732
0.0112729
0.0121064
0.0129746
0.0138786
0.0148195
0.0157982
0.0168159
0.0178737
0.0189728
0.0201141
0.021299
0.0225285
0.0238037
0.0251258
0.0264958
0.0279148
0.0293838
0.0309039
0.0324759
0.0341008
0.0357793
0.0375121
0.0392999
0.041143
0.0430419
0.0449967
0.0470074
0.0490738
0.0511956
0.0533721
0.0556024
0.0578854
0.0602196
0.0626031
0.0650339
0.0675093
0.0700265
0.0725822
0.0751727
0.0777936
0.0804405
0.0831083
0.0857913
0.0884837
0.0911789
0.0938702
0.0965501
0.0992112
0.101845
0.104444
0.106999
0.109502
0.111944
0.114315
0.116608
0.118814
0.120924
0.12293
0.124825
0.126601
0.128254
0.129777
0.131165
0.132416
0.133526
0.134494
0.13532
0.136005
0.13655
0.13696
0.137239
0.137392
0.137426
0.137349
0.137169
0.136894
0.136534
0.136099
0.135599
0.135043
0.13444
0.133799
0.133128
0.132432
0.131722
0.131005
0.130223
0.129322
0.00306622
0.00270812
0.0023965
0.00211011
0.00182569
0.00154536
0.00127147
0.00100459
0.000745303
0.000494311
0.00025226
1.97282e-05
-0.000202771
-0.000414794
-0.000615981
-0.000806045
-0.000984762
-0.00115196
-0.00130754
-0.00145142
-0.00158357
-0.00170397
-0.00181265
-0.00190961
-0.00199489
-0.00206851
-0.00213049
-0.00218084
-0.00221955
-0.0022466
-0.00226195
-0.00226551
-0.00225721
-0.00223693
-0.00220454
-0.00215987
-0.00210274
-0.00203295
-0.00195028
-0.0018545
-0.00174533
-0.00162252
-0.00148574
-0.00133469
-0.00116901
-0.000988363
-0.000792356
-0.000580597
-0.000352663
-0.000108113
0.000153509
0.000432669
0.00072985
0.00104555
0.00138029
0.00173462
0.00210908
0.00250427
0.00292077
0.0033592
0.00382019
0.0043044
0.00481253
0.00534528
0.00590339
0.00648764
0.00709878
0.00773761
0.00840496
0.00910166
0.0098286
0.0105867
0.0113768
0.0122
0.0130572
0.0139494
0.0148777
0.0158429
0.0168463
0.0178889
0.0189717
0.0200959
0.0212627
0.0224731
0.0237282
0.0250292
0.0263771
0.027773
0.029218
0.030713
0.0322592
0.0338573
0.0355082
0.0372127
0.0389714
0.0407849
0.0426536
0.0445778
0.0465576
0.048593
0.0506837
0.0528293
0.0550289
0.0572816
0.0595861
0.0619407
0.0643435
0.0667921
0.0692838
0.0718155
0.0743836
0.0769841
0.0796126
0.0822642
0.0849335
0.0876146
0.0903012
0.0929865
0.0956635
0.0983243
0.100961
0.103566
0.10613
0.108644
0.1111
0.113488
0.1158
0.118027
0.12016
0.122191
0.124113
0.125917
0.127598
0.12915
0.130567
0.131847
0.132985
0.13398
0.134831
0.13554
0.136107
0.136537
0.136832
0.136998
0.137042
0.13697
0.136791
0.136514
0.136146
0.135699
0.13518
0.1346
0.133966
0.133288
0.132573
0.131826
0.131057
0.130274
0.129412
0.128411
0.00346052
0.00305291
0.00270309
0.00238653
0.00207602
0.00177355
0.00148138
0.0011997
0.000928711
0.000668758
0.000420151
0.000183151
-4.20316e-05
-0.00025524
-0.000456372
-0.000645374
-0.000822233
-0.000986971
-0.00113964
-0.00128033
-0.00140912
-0.00152611
-0.0016314
-0.0017251
-0.00180727
-0.00187801
-0.00193737
-0.00198538
-0.00202206
-0.00204738
-0.0020613
-0.00206376
-0.00205466
-0.00203388
-0.00200127
-0.00195664
-0.00189982
-0.00183057
-0.00174866
-0.00165385
-0.00154586
-0.00142438
-0.00128911
-0.00113972
-0.000975846
-0.000797134
-0.000603197
-0.000393632
-0.000168015
7.40949e-05
0.000333145
0.000609593
0.000903914
0.0012166
0.00154816
0.00189911
0.00227001
0.00266139
0.00307384
0.00350795
0.00396431
0.00444357
0.00494638
0.00547344
0.00602544
0.00660311
0.00720719
0.00783844
0.00849762
0.00918556
0.00990309
0.0106511
0.0114305
0.0122421
0.013087
0.013966
0.0148802
0.0158306
0.0168181
0.0178438
0.0189089
0.0200143
0.0211613
0.0223509
0.0235842
0.0248624
0.0261864
0.0275575
0.0289767
0.030445
0.0319635
0.0335331
0.0351547
0.0368292
0.0385573
0.0403397
0.0421768
0.0440691
0.0460169
0.0480201
0.0500788
0.0521925
0.0543608
0.0565827
0.0588572
0.0611828
0.0635577
0.0659797
0.0684465
0.070955
0.0735019
0.0760833
0.0786951
0.0813324
0.0839901
0.0866625
0.0893433
0.092026
0.0947033
0.0973678
0.100011
0.102626
0.105203
0.107733
0.110208
0.112619
0.114955
0.117209
0.119371
0.121434
0.123387
0.125226
0.126941
0.128527
0.129979
0.131292
0.132463
0.133489
0.134371
0.135107
0.135699
0.136149
0.136462
0.136643
0.136697
0.136631
0.136453
0.136171
0.135794
0.135331
0.134792
0.134184
0.133518
0.1328
0.132038
0.131238
0.13041
0.129562
0.128622
0.127525
0.00384488
0.00338795
0.00299978
0.00265264
0.00231546
0.00199012
0.0016788
0.00138137
0.00109767
0.000827709
0.00057148
0.000328941
0.000100009
-0.00011543
-0.00031752
-0.000506434
-0.000682366
-0.000845526
-0.000996134
-0.00113441
-0.00126058
-0.00137485
-0.0014774
-0.00156841
-0.00164804
-0.00171641
-0.00177362
-0.00181972
-0.00185476
-0.00187872
-0.00189157
-0.00189324
-0.00188363
-0.00186262
-0.00183005
-0.00178571
-0.00172942
-0.00166094
-0.00158003
-0.00148641
-0.00137979
-0.00125987
-0.00112632
-0.0009788
-0.000816958
-0.000640418
-0.00044879
-0.000241671
-1.86366e-05
0.000220748
0.000476924
0.000750339
0.00104146
0.00135076
0.00167874
0.00202591
0.00239278
0.00277989
0.00318777
0.00361699
0.00406814
0.00454182
0.00503865
0.00555929
0.00610442
0.00667472
0.00727087
0.00789361
0.00854368
0.00922184
0.00992891
0.0106657
0.0114331
0.012232
0.0130633
0.0139278
0.0148266
0.0157605
0.0167307
0.0177381
0.0187838
0.0198689
0.0209945
0.0221616
0.0233714
0.0246249
0.0259234
0.0272678
0.0286594
0.0300992
0.0315882
0.0331276
0.0347183
0.0363611
0.0380569
0.0398065
0.0416106
0.0434695
0.0453838
0.0473537
0.0493792
0.0514601
0.0535961
0.0557865
0.0580304
0.0603266
0.0626734
0.065069
0.067511
0.0699968
0.0725232
0.0750865
0.0776828
0.0803074
0.0829554
0.0856211
0.0882986
0.0909812
0.0936619
0.0963334
0.0989875
0.101616
0.10421
0.106762
0.109261
0.111698
0.114065
0.116351
0.118548
0.120647
0.122639
0.124516
0.126271
0.127898
0.12939
0.130742
0.131951
0.133014
0.133929
0.134696
0.135316
0.135791
0.136125
0.136322
0.136387
0.136327
0.13615
0.135863
0.135476
0.134997
0.134435
0.133799
0.133097
0.132338
0.131529
0.130675
0.129787
0.128875
0.12786
0.126671
0.00421432
0.00370838
0.00328189
0.00290395
0.00253969
0.00219095
0.00185986
0.00154594
0.00124872
0.000967901
0.000703169
0.000454188
0.000220598
2.02751e-06
-0.000201906
-0.000391596
-0.000567439
-0.000729827
-0.000879145
-0.00101576
-0.00114
-0.00125219
-0.00135262
-0.00144153
-0.00151916
-0.00158566
-0.00164119
-0.00168582
-0.00171962
-0.00174259
-0.00175471
-0.00175592
-0.00174611
-0.00172515
-0.00169287
-0.00164908
-0.00159355
-0.00152606
-0.00144634
-0.00135411
-0.00124907
-0.00113089
-0.000999256
-0.000853811
-0.000694193
-0.000520024
-0.000330913
-0.000126455
9.3769e-05
0.000330186
0.000583228
0.000853332
0.00114095
0.00144655
0.00177062
0.00211363
0.00247608
0.00285848
0.00326133
0.00368518
0.00413057
0.00459809
0.00508832
0.0056019
0.00613945
0.00670161
0.00728904
0.00790242
0.00854246
0.00920989
0.00990549
0.01063
0.0113844
0.0121693
0.0129857
0.0138344
0.0147164
0.0156327
0.016584
0.0175716
0.0185964
0.0196596
0.0207621
0.021905
0.0230896
0.0243168
0.0255879
0.0269039
0.0282661
0.0296756
0.0311335
0.0326408
0.0341987
0.0358081
0.03747
0.0391852
0.0409545
0.0427785
0.0446579
0.046593
0.0485839
0.0506309
0.0527335
0.0548915
0.057104
0.0593701
0.0616884
0.0640573
0.0664745
0.0689377
0.0714439
0.0739897
0.0765713
0.0791844
0.081824
0.0844848
0.0871609
0.0898458
0.0925326
0.0952139
0.0978818
0.100528
0.103144
0.10572
0.108247
0.110717
0.113118
0.115442
0.117679
0.11982
0.121857
0.123779
0.12558
0.127253
0.128791
0.130188
0.13144
0.132545
0.133499
0.134302
0.134954
0.135457
0.135815
0.13603
0.136108
0.136056
0.135881
0.13559
0.135192
0.134696
0.134111
0.133445
0.132707
0.131906
0.131048
0.13014
0.129193
0.128217
0.127128
0.125852
0.00456413
0.00400959
0.00354491
0.00313608
0.00274452
0.00237201
0.00202068
0.00168973
0.00137837
0.00108601
0.000812054
0.000555882
0.000316871
9.43997e-05
-0.000112146
-0.000303372
-0.000479873
-0.00064222
-0.000790952
-0.00092657
-0.00104954
-0.00116027
-0.00125916
-0.00134654
-0.00142269
-0.00148782
-0.00154212
-0.00158572
-0.00161868
-0.00164104
-0.00165278
-0.00165384
-0.00164412
-0.00162347
-0.00159174
-0.00154872
-0.00149418
-0.00142788
-0.00134955
-0.00125889
-0.00115559
-0.00103933
-0.00090977
-0.000766557
-0.000609325
-0.00043769
-0.000251259
-4.96338e-05
0.000167596
0.000400848
0.000650545
0.000917115
0.001201
0.00150264
0.0018225
0.00216104
0.00251873
0.00289605
0.00329346
0.00371149
0.00415065
0.0046115
0.00509459
0.0056005
0.00612982
0.00668315
0.00726111
0.00786435
0.00849352
0.00914932
0.00983249
0.0105438
0.011284
0.0120538
0.0128542
0.0136859
0.0145498
0.0154469
0.0163782
0.0173445
0.0183469
0.0193865
0.0204644
0.0215815
0.0227392
0.0239384
0.0251804
0.0264663
0.0277973
0.0291746
0.0305995
0.032073
0.0335963
0.0351705
0.0367966
0.0384757
0.0402085
0.041996
0.0438389
0.0457376
0.0476927
0.0497043
0.0517724
0.0538967
0.0560769
0.0583121
0.0606011
0.0629426
0.0653347
0.0677751
0.0702612
0.0727898
0.0753573
0.0779595
0.0805918
0.0832489
0.0859252
0.0886143
0.0913094
0.0940032
0.0966876
0.0993545
0.101995
0.1046
0.10716
0.109666
0.112107
0.114474
0.116757
0.118946
0.121032
0.123005
0.124859
0.126583
0.128173
0.129621
0.130923
0.132074
0.133072
0.133916
0.134606
0.135141
0.135526
0.135763
0.135857
0.135815
0.135643
0.135349
0.134942
0.134429
0.13382
0.133124
0.13235
0.131506
0.1306
0.129637
0.128631
0.127592
0.126432
0.125071
0.00488984
0.00428714
0.00378449
0.00334479
0.00292583
0.00252934
0.00215744
0.00180905
0.00148308
0.00117866
0.000894904
0.000630932
0.000385867
0.000158846
-5.09714e-05
-0.0002444
-0.000422223
-0.000585179
-0.000733959
-0.000869201
-0.000991491
-0.00110136
-0.00119927
-0.00128564
-0.0013608
-0.00142503
-0.00147855
-0.00152152
-0.00155403
-0.00157614
-0.00158782
-0.00158904
-0.00157968
-0.00155961
-0.00152866
-0.00148663
-0.00143328
-0.00136835
-0.00129156
-0.00120262
-0.00110121
-0.000986992
-0.000859629
-0.000718767
-0.000564035
-0.000395048
-0.000211417
-1.27488e-05
0.000201355
0.000431302
0.000677502
0.000940371
0.00122033
0.00151781
0.00183324
0.00216707
0.00251972
0.00289164
0.00328328
0.00369512
0.00412765
0.00458138
0.00505683
0.00555453
0.00607505
0.00661892
0.00718674
0.0077791
0.00839662
0.00903997
0.00970983