/*--------------------------------*- C++ -*----------------------------------*\
  =========                 |
  \\      /  F ield         | OpenFOAM: The Open Source CFD Toolbox
   \\    /   O peration     | Website:  https://openfoam.org
    \\  /    A nd           | Version:  7
     \\/     M anipulation  |
\*---------------------------------------------------------------------------*/
FoamFile
{
    version     2.0;
    format      ascii;
    class       volScalarField;
    location    "0.25";
    object      p;
}
// * * * * * * * * * * * * * * * * * * * * * * * * * * * * * * * * * * * * * //

dimensions      [0 2 -2 0 0 0 0];

internalField   nonuniform List<scalar> 
51200
(
5.59686e-07
-1.75262e-06
-3.52485e-06
-2.83234e-06
2.82138e-07
5.21524e-06
1.15482e-05
1.88593e-05
2.69831e-05
3.54937e-05
4.42708e-05
5.31077e-05
6.18285e-05
7.03393e-05
7.85004e-05
8.62299e-05
9.34194e-05
0.000100004
0.000105933
0.000111122
0.000115523
0.000119104
0.000121826
0.000123645
0.000124588
0.000124604
0.000123662
0.000121788
0.000118951
0.000115124
0.000110323
0.000104573
9.78731e-05
9.02308e-05
8.1664e-05
7.21704e-05
6.17312e-05
5.03656e-05
3.81079e-05
2.49837e-05
1.09961e-05
-3.84911e-06
-1.95165e-05
-3.60037e-05
-5.32995e-05
-7.13864e-05
-9.02201e-05
-0.000109785
-0.000130076
-0.000151076
-0.000172758
-0.000195084
-0.000218038
-0.000241608
-0.00026577
-0.000290486
-0.000315741
-0.000341528
-0.000367828
-0.000394605
-0.00042183
-0.000449484
-0.000477543
-0.000505989
-0.000534797
-0.000563939
-0.000593403
-0.000623176
-0.000653225
-0.000683517
-0.00071403
-0.000744746
-0.000775653
-0.000806729
-0.000837949
-0.000869286
-0.000900722
-0.000932235
-0.000963796
-0.000995381
-0.00102696
-0.00105853
-0.00109005
-0.00112153
-0.00115294
-0.00118425
-0.00121543
-0.00124646
-0.00127733
-0.00130802
-0.00133849
-0.00136872
-0.00139869
-0.00142837
-0.00145774
-0.00148679
-0.00151549
-0.00154381
-0.00157174
-0.00159925
-0.00162632
-0.00165292
-0.00167903
-0.00170463
-0.00172971
-0.00175424
-0.00177819
-0.00180154
-0.00182427
-0.00184635
-0.00186777
-0.00188851
-0.00190854
-0.00192784
-0.00194638
-0.00196414
-0.00198111
-0.00199726
-0.00201259
-0.00202707
-0.0020407
-0.00205344
-0.00206529
-0.00207622
-0.00208623
-0.00209531
-0.00210344
-0.00211061
-0.00211682
-0.00212206
-0.00212633
-0.00212963
-0.00213195
-0.0021333
-0.00213369
-0.00213312
-0.00213161
-0.00212918
-0.00212586
-0.00212166
-0.00211662
-0.00211079
-0.00210421
-0.00209694
-0.00208903
-0.00208057
-0.00207162
-0.0020623
-0.00205272
-0.002043
-0.00203331
-0.00202381
-0.00201471
-0.00200623
-0.00199863
-0.00199219
-0.0019872
-0.00198398
-0.00198276
-0.00198328
1.11648e-07
-2.25734e-06
-3.44894e-06
-2.72312e-06
-2.34218e-07
3.86017e-06
9.13747e-06
1.53962e-05
2.23067e-05
2.97181e-05
3.73585e-05
4.50976e-05
5.28027e-05
6.02924e-05
6.75117e-05
7.43495e-05
8.06876e-05
8.65113e-05
9.17176e-05
9.62387e-05
0.000100049
0.000103084
0.000105293
0.000106678
0.000107222
0.000106867
0.000105621
0.000103488
0.000100434
9.64574e-05
9.15676e-05
8.57509e-05
7.89899e-05
7.13074e-05
6.27435e-05
5.32888e-05
4.29325e-05
3.16998e-05
1.9607e-05
6.6488e-06
-7.16278e-06
-2.17983e-05
-3.72308e-05
-5.34588e-05
-7.04764e-05
-8.82544e-05
-0.00010676
-0.000125985
-0.000145925
-0.000166551
-0.000187831
-0.000209745
-0.000232284
-0.000255434
-0.00027916
-0.000303435
-0.000328241
-0.000353566
-0.000379383
-0.000405659
-0.000432376
-0.000459529
-0.000487096
-0.000515043
-0.000543337
-0.000571955
-0.000600885
-0.000630119
-0.000659628
-0.000689376
-0.000719341
-0.000749512
-0.000779873
-0.000810401
-0.000841069
-0.000871851
-0.00090273
-0.000933685
-0.000964686
-0.000995709
-0.00102673
-0.00105774
-0.00108871
-0.00111962
-0.00115046
-0.00118121
-0.00121184
-0.00124233
-0.00127265
-0.00130279
-0.00133272
-0.00136241
-0.00139184
-0.00142098
-0.00144982
-0.00147834
-0.00150651
-0.00153432
-0.00156174
-0.00158875
-0.00161533
-0.00164145
-0.00166707
-0.0016922
-0.0017168
-0.00174087
-0.00176438
-0.00178731
-0.00180963
-0.00183132
-0.00185235
-0.00187271
-0.00189237
-0.00191132
-0.00192953
-0.00194699
-0.00196368
-0.00197957
-0.00199466
-0.00200892
-0.00202235
-0.00203493
-0.00204664
-0.00205747
-0.00206739
-0.00207641
-0.00208452
-0.00209171
-0.00209798
-0.00210331
-0.00210772
-0.00211118
-0.00211372
-0.00211533
-0.00211601
-0.0021158
-0.00211469
-0.00211271
-0.0021099
-0.00210626
-0.00210184
-0.00209668
-0.00209082
-0.00208433
-0.00207726
-0.00206969
-0.0020617
-0.00205339
-0.00204486
-0.00203624
-0.00202767
-0.0020193
-0.00201133
-0.00200394
-0.00199734
-0.00199176
-0.00198741
-0.0019845
-0.0019833
-0.00198381
-3.50109e-06
-5.27734e-06
-5.7211e-06
-4.71169e-06
-2.32523e-06
1.30877e-06
6.03744e-06
1.15633e-05
1.77392e-05
2.43059e-05
3.11351e-05
3.80841e-05
4.49736e-05
5.17213e-05
5.82147e-05
6.43358e-05
7.00335e-05
7.52406e-05
7.98542e-05
8.38541e-05
8.71809e-05
8.976e-05
9.15762e-05
9.2619e-05
9.28184e-05
9.21737e-05
9.06897e-05
8.83204e-05
8.50527e-05
8.09238e-05
7.59295e-05
7.00393e-05
6.32489e-05
5.557e-05
4.70123e-05
3.75655e-05
2.72518e-05
1.61066e-05
4.12506e-06
-8.70115e-06
-2.2349e-05
-3.6789e-05
-5.20237e-05
-6.80454e-05
-8.48392e-05
-0.000102368
-0.000120612
-0.000139569
-0.000159225
-0.000179542
-0.000200496
-0.00022208
-0.000244279
-0.000267064
-0.000290408
-0.000314302
-0.000338735
-0.000363682
-0.000389107
-0.000414979
-0.000441282
-0.000468009
-0.000495146
-0.000522661
-0.000550523
-0.000578709
-0.000607203
-0.000635988
-0.000665037
-0.000694329
-0.000723844
-0.000753562
-0.00078346
-0.000813516
-0.00084371
-0.000874021
-0.00090443
-0.000934915
-0.000965447
-0.000995995
-0.00102655
-0.00105708
-0.00108758
-0.00111803
-0.0011484
-0.00117867
-0.00120883
-0.00123886
-0.00126872
-0.0012984
-0.00132786
-0.00135709
-0.00138607
-0.00141477
-0.00144317
-0.00147125
-0.00149898
-0.00152636
-0.00155334
-0.00157993
-0.00160609
-0.0016318
-0.00165703
-0.00168177
-0.00170599
-0.00172968
-0.00175281
-0.00177538
-0.00179734
-0.0018187
-0.00183941
-0.00185946
-0.00187884
-0.0018975
-0.00191545
-0.00193265
-0.00194911
-0.00196479
-0.00197969
-0.00199378
-0.00200705
-0.00201949
-0.00203109
-0.00204183
-0.0020517
-0.00206069
-0.00206879
-0.002076
-0.00208231
-0.00208773
-0.00209225
-0.00209587
-0.00209859
-0.00210041
-0.00210135
-0.00210143
-0.00210065
-0.00209905
-0.00209665
-0.00209347
-0.00208955
-0.00208493
-0.00207966
-0.00207379
-0.00206739
-0.00206052
-0.00205327
-0.00204573
-0.002038
-0.0020302
-0.00202245
-0.00201491
-0.00200773
-0.00200107
-0.00199512
-0.00199007
-0.00198608
-0.00198334
-0.00198213
-0.00198262
-9.12845e-06
-1.00643e-05
-9.81117e-06
-8.40173e-06
-5.85726e-06
-2.26938e-06
2.12526e-06
7.27495e-06
1.29284e-05
1.89521e-05
2.52074e-05
3.15454e-05
3.78468e-05
4.40074e-05
4.99141e-05
5.54893e-05
6.06798e-05
6.53659e-05
6.95179e-05
7.30755e-05
7.59625e-05
7.81661e-05
7.96443e-05
8.03662e-05
8.02873e-05
7.94102e-05
7.77131e-05
7.5157e-05
7.17369e-05
6.74751e-05
6.23551e-05
5.63685e-05
4.9533e-05
4.18479e-05
3.32905e-05
2.38692e-05
1.36106e-05
2.52972e-06
-9.37791e-06
-2.21083e-05
-3.5626e-05
-4.99193e-05
-6.49962e-05
-8.08402e-05
-9.74258e-05
-0.000114732
-0.000132754
-0.000151481
-0.000170885
-0.000190929
-0.000211606
-0.000232914
-0.000254824
-0.000277301
-0.000300325
-0.000323891
-0.000347987
-0.000372587
-0.000397658
-0.000423178
-0.000449132
-0.000475503
-0.000502265
-0.000529392
-0.000556868
-0.000584676
-0.000612791
-0.000641185
-0.000669831
-0.000698715
-0.000727826
-0.000757143
-0.000786639
-0.000816286
-0.000846066
-0.000875963
-0.000905956
-0.000936022
-0.000966132
-0.00099626
-0.00102639
-0.00105651
-0.0010866
-0.00111663
-0.00114658
-0.00117644
-0.0012062
-0.00123581
-0.00126527
-0.00129454
-0.0013236
-0.00135242
-0.001381
-0.0014093
-0.00143732
-0.00146501
-0.00149237
-0.00151936
-0.00154598
-0.0015722
-0.00159798
-0.00162333
-0.00164821
-0.0016726
-0.00169649
-0.00171986
-0.00174267
-0.00176492
-0.00178658
-0.00180764
-0.00182807
-0.00184786
-0.00186698
-0.00188541
-0.00190313
-0.00192012
-0.00193637
-0.00195187
-0.00196661
-0.00198055
-0.0019937
-0.00200604
-0.00201754
-0.00202821
-0.00203803
-0.00204699
-0.0020551
-0.00206233
-0.0020687
-0.0020742
-0.00207882
-0.00208257
-0.00208546
-0.00208747
-0.00208864
-0.00208898
-0.00208849
-0.00208721
-0.00208515
-0.00208236
-0.00207886
-0.00207469
-0.0020699
-0.00206455
-0.00205869
-0.00205239
-0.00204573
-0.00203879
-0.00203168
-0.00202449
-0.00201736
-0.0020104
-0.00200376
-0.00199758
-0.00199202
-0.00198724
-0.0019834
-0.00198066
-0.00197928
-0.00197944
-1.61008e-05
-1.61974e-05
-1.51957e-05
-1.32598e-05
-1.04438e-05
-6.82901e-06
-2.50356e-06
2.38906e-06
7.70639e-06
1.33388e-05
1.9126e-05
2.49811e-05
3.07994e-05
3.6451e-05
4.18696e-05
4.69773e-05
5.16824e-05
5.59351e-05
5.96799e-05
6.28268e-05
6.5342e-05
6.72057e-05
6.83638e-05
6.87709e-05
6.84346e-05
6.73234e-05
6.53992e-05
6.2664e-05
5.91152e-05
5.47367e-05
4.95068e-05
4.34378e-05
3.65498e-05
2.88229e-05
2.02472e-05
1.08502e-05
6.44246e-07
-1.03809e-05
-2.22152e-05
-3.48411e-05
-4.82372e-05
-6.24053e-05
-7.73456e-05
-9.30314e-05
-0.000109428
-0.000126535
-0.000144353
-0.000162859
-0.00018202
-0.000201812
-0.000222231
-0.000243268
-0.000264892
-0.000287075
-0.000309805
-0.000333075
-0.000356859
-0.000381126
-0.000405855
-0.000431034
-0.000456651
-0.000482681
-0.000509092
-0.000535857
-0.000562965
-0.000590405
-0.000618153
-0.000646175
-0.000674443
-0.000702945
-0.000731669
-0.000760594
-0.000789694
-0.000818946
-0.000848332
-0.000877834
-0.00090743
-0.000937094
-0.000966802
-0.000996527
-0.00102626
-0.00105598
-0.00108567
-0.0011153
-0.00114486
-0.00117432
-0.00120368
-0.0012329
-0.00126197
-0.00129085
-0.00131953
-0.00134797
-0.00137616
-0.00140409
-0.00143172
-0.00145904
-0.00148603
-0.00151267
-0.00153894
-0.0015648
-0.00159025
-0.00161525
-0.00163979
-0.00166385
-0.00168742
-0.00171047
-0.00173298
-0.00175494
-0.00177632
-0.0017971
-0.00181726
-0.0018368
-0.00185568
-0.00187388
-0.00189139
-0.00190819
-0.00192426
-0.0019396
-0.00195417
-0.00196798
-0.00198102
-0.00199326
-0.00200468
-0.00201529
-0.00202506
-0.00203401
-0.00204212
-0.00204939
-0.00205581
-0.00206139
-0.00206611
-0.00207
-0.00207304
-0.00207524
-0.00207662
-0.00207719
-0.00207698
-0.00207599
-0.00207427
-0.00207183
-0.00206871
-0.00206495
-0.0020606
-0.00205571
-0.00205033
-0.00204453
-0.00203838
-0.00203196
-0.00202537
-0.00201869
-0.00201205
-0.00200555
-0.00199931
-0.00199347
-0.00198815
-0.0019835
-0.00197965
-0.00197674
-0.00197499
-0.00197451
-2.42053e-05
-2.32559e-05
-2.1527e-05
-1.9046e-05
-1.58838e-05
-1.20751e-05
-7.74686e-06
-2.97874e-06
2.13918e-06
7.48624e-06
1.29472e-05
1.84487e-05
2.3846e-05
2.90943e-05
3.41125e-05
3.88079e-05
4.31108e-05
4.69853e-05
5.03434e-05
5.31253e-05
5.53192e-05
5.68648e-05
5.77292e-05
5.78805e-05
5.73095e-05
5.59662e-05
5.38334e-05
5.09285e-05
4.72359e-05
4.27263e-05
3.74049e-05
3.1278e-05
2.43346e-05
1.6562e-05
7.97204e-06
-1.40911e-06
-1.15875e-05
-2.25714e-05
-3.4339e-05
-4.6868e-05
-6.01573e-05
-7.42101e-05
-8.90158e-05
-0.000104545
-0.000120775
-0.000137708
-0.000155337
-0.000173632
-0.000192567
-0.000212133
-0.000232319
-0.000253101
-0.00027445
-0.000296354
-0.000318805
-0.000341791
-0.00036528
-0.000389242
-0.000413656
-0.000438516
-0.00046381
-0.000489508
-0.000515581
-0.00054201
-0.00056878
-0.000595872
-0.000623262
-0.000650925
-0.000678836
-0.000706981
-0.000735341
-0.000763893
-0.000792616
-0.000821493
-0.000850501
-0.000879627
-0.000908844
-0.000938125
-0.000967448
-0.000996792
-0.00102614
-0.00105549
-0.00108479
-0.00111404
-0.00114322
-0.00117232
-0.0012013
-0.00123015
-0.00125884
-0.00128734
-0.00131565
-0.00134373
-0.00137157
-0.00139914
-0.00142642
-0.00145339
-0.00148003
-0.00150632
-0.00153225
-0.00155778
-0.0015829
-0.00160758
-0.00163181
-0.00165556
-0.00167882
-0.00170158
-0.0017238
-0.00174548
-0.00176659
-0.00178711
-0.00180704
-0.00182634
-0.00184499
-0.00186298
-0.00188029
-0.00189691
-0.00191282
-0.001928
-0.00194244
-0.00195613
-0.00196905
-0.0019812
-0.00199255
-0.00200311
-0.00201286
-0.00202179
-0.00202991
-0.00203721
-0.00204369
-0.00204934
-0.00205417
-0.00205818
-0.00206137
-0.00206375
-0.00206533
-0.00206613
-0.00206616
-0.00206545
-0.00206403
-0.00206191
-0.00205914
-0.00205575
-0.00205179
-0.0020473
-0.00204234
-0.00203697
-0.00203126
-0.00202528
-0.00201911
-0.00201285
-0.00200658
-0.00200042
-0.00199446
-0.00198882
-0.00198362
-0.00197896
-0.00197497
-0.00197177
-0.00196948
-0.00196813
-3.32332e-05
-3.11622e-05
-2.8612e-05
-2.55911e-05
-2.20047e-05
-1.79427e-05
-1.34921e-05
-8.69605e-06
-3.678e-06
1.49651e-06
6.74139e-06
1.19598e-05
1.70678e-05
2.20035e-05
2.66813e-05
3.10371e-05
3.50148e-05
3.85498e-05
4.15692e-05
4.40514e-05
4.59471e-05
4.72051e-05
4.78009e-05
4.77242e-05
4.69313e-05
4.538e-05
4.30765e-05
4.00191e-05
3.61748e-05
3.1542e-05
2.61326e-05
1.99393e-05
1.29325e-05
5.12529e-06
-3.46623e-06
-1.28419e-05
-2.30064e-05
-3.39515e-05
-4.5655e-05
-5.81065e-05
-7.13129e-05
-8.52639e-05
-9.99395e-05
-0.000115321
-0.000131405
-0.000148184
-0.000165636
-0.000183732
-0.000202461
-0.000221819
-0.000241787
-0.000262333
-0.000283433
-0.000305083
-0.000327277
-0.000349991
-0.000373195
-0.000396869
-0.000420998
-0.00044557
-0.000470561
-0.000495943
-0.000521697
-0.000547811
-0.000574264
-0.000601032
-0.000628087
-0.00065541
-0.000682983
-0.000710789
-0.000738808
-0.000767012
-0.000795381
-0.000823903
-0.000852559
-0.00088133
-0.000910189
-0.000939108
-0.00096807
-0.000997057
-0.00102605
-0.00105503
-0.00108398
-0.00111287
-0.00114169
-0.00117043
-0.00119907
-0.00122756
-0.0012559
-0.00128406
-0.00131202
-0.00133975
-0.00136725
-0.00139448
-0.00142143
-0.00144807
-0.00147439
-0.00150036
-0.00152597
-0.00155119
-0.00157599
-0.00160037
-0.00162431
-0.00164777
-0.00167075
-0.00169323
-0.00171519
-0.0017366
-0.00175747
-0.00177776
-0.00179745
-0.00181654
-0.00183498
-0.00185278
-0.00186991
-0.00188636
-0.00190211
-0.00191715
-0.00193147
-0.00194504
-0.00195787
-0.00196994
-0.00198124
-0.00199175
-0.00200147
-0.0020104
-0.00201854
-0.00202588
-0.00203241
-0.00203814
-0.00204307
-0.00204719
-0.00205052
-0.00205306
-0.00205483
-0.00205583
-0.00205609
-0.00205564
-0.00205448
-0.00205266
-0.0020502
-0.00204713
-0.00204351
-0.00203937
-0.00203477
-0.00202977
-0.00202442
-0.00201879
-0.00201296
-0.00200701
-0.00200102
-0.00199509
-0.0019893
-0.00198374
-0.00197853
-0.00197374
-0.0019695
-0.0019659
-0.00196295
-0.0019606
-4.29176e-05
-3.96662e-05
-3.63058e-05
-3.26556e-05
-2.86189e-05
-2.42414e-05
-1.95546e-05
-1.46894e-05
-9.66439e-06
-4.5556e-06
5.47915e-07
5.57634e-06
1.04784e-05
1.51607e-05
1.95717e-05
2.36687e-05
2.7367e-05
3.0611e-05
3.33581e-05
3.55781e-05
3.72018e-05
3.82143e-05
3.85862e-05
3.82834e-05
3.72711e-05
3.55427e-05
3.30863e-05
2.98809e-05
2.59034e-05
2.1167e-05
1.56728e-05
9.39553e-06
2.32751e-06
-5.50813e-06
-1.41091e-05
-2.34895e-05
-3.3643e-05
-4.45475e-05
-5.61932e-05
-6.85822e-05
-8.17167e-05
-9.55749e-05
-0.000110131
-0.000125385
-0.000141338
-0.000157975
-0.000175261
-0.000193179
-0.000211726
-0.000230893
-0.000250649
-0.000270971
-0.000291848
-0.000313271
-0.000335226
-0.000357688
-0.000380627
-0.00040403
-0.000427892
-0.000452193
-0.000476903
-0.000501993
-0.000527451
-0.000553269
-0.000579423
-0.000605885
-0.000632627
-0.000659634
-0.000686891
-0.000714377
-0.000742072
-0.00076995
-0.000797989
-0.000826182
-0.000854508
-0.000882943
-0.000911463
-0.000940044
-0.000968669
-0.00099732
-0.00102598
-0.00105462
-0.00108323
-0.00111178
-0.00114027
-0.00116868
-0.00119698
-0.00122514
-0.00125315
-0.00128098
-0.00130862
-0.00133603
-0.0013632
-0.00139011
-0.00141675
-0.00144308
-0.00146909
-0.00149477
-0.00152008
-0.001545
-0.00156952
-0.00159362
-0.00161728
-0.00164048
-0.00166319
-0.00168542
-0.00170713
-0.00172831
-0.00174894
-0.00176901
-0.0017885
-0.00180738
-0.00182564
-0.00184326
-0.00186022
-0.00187651
-0.00189212
-0.00190703
-0.00192124
-0.00193472
-0.00194746
-0.00195946
-0.0019707
-0.00198118
-0.00199089
-0.00199982
-0.00200798
-0.00201535
-0.00202194
-0.00202775
-0.00203277
-0.002037
-0.00204047
-0.00204316
-0.0020451
-0.00204629
-0.00204676
-0.00204653
-0.00204562
-0.00204405
-0.00204186
-0.00203908
-0.00203575
-0.00203192
-0.00202762
-0.00202291
-0.00201786
-0.00201251
-0.00200694
-0.00200121
-0.00199542
-0.00198962
-0.0019839
-0.00197833
-0.001973
-0.001968
-0.00196341
-0.00195932
-0.00195563
-0.00195218
-5.3041e-05
-4.86317e-05
-4.43794e-05
-4.01188e-05
-3.55772e-05
-3.08106e-05
-2.58854e-05
-2.08412e-05
-1.57329e-05
-1.06324e-05
-5.59161e-06
-6.55193e-07
4.10088e-06
8.60195e-06
1.28262e-05
1.6703e-05
2.01579e-05
2.31726e-05
2.56914e-05
2.76655e-05
2.9065e-05
2.98651e-05
3.00398e-05
2.95307e-05
2.83298e-05
2.64417e-05
2.3832e-05
2.04789e-05
1.63926e-05
1.15662e-05
5.98319e-06
-3.72903e-07
-7.49003e-06
-1.53568e-05
-2.39816e-05
-3.33724e-05
-4.35126e-05
-5.4381e-05
-6.59831e-05
-7.83231e-05
-9.13884e-05
-0.000105157
-0.00011961
-0.00013476
-0.000150595
-0.00016709
-0.000184226
-0.00020199
-0.000220376
-0.000239363
-0.000258922
-0.000279039
-0.000299709
-0.000320924
-0.000342659
-0.000364886
-0.000387584
-0.000410744
-0.000434358
-0.0004584
-0.000482842
-0.000507663
-0.000532851
-0.000558394
-0.000584263
-0.000610434
-0.000636886
-0.000663603
-0.000690565
-0.00071775
-0.000745137
-0.000772709
-0.000800444
-0.00082833
-0.000856348
-0.000884469
-0.000912672
-0.000940935
-0.000969245
-0.000997581
-0.00102592
-0.00105424
-0.00108254
-0.00111078
-0.00113896
-0.00116705
-0.00119504
-0.00122289
-0.00125059
-0.00127811
-0.00130544
-0.00133255
-0.00135942
-0.00138604
-0.00141238
-0.00143842
-0.00146414
-0.00148953
-0.00151457
-0.00153922
-0.00156347
-0.00158731
-0.00161071
-0.00163366
-0.00165613
-0.00167812
-0.00169961
-0.00172057
-0.00174099
-0.00176086
-0.00178016
-0.00179885
-0.00181694
-0.00183439
-0.0018512
-0.00186735
-0.00188283
-0.00189763
-0.00191173
-0.00192512
-0.0019378
-0.00194974
-0.00196094
-0.00197139
-0.00198109
-0.00199003
-0.0019982
-0.00200562
-0.00201226
-0.00201814
-0.00202325
-0.00202759
-0.00203118
-0.00203401
-0.0020361
-0.00203747
-0.00203813
-0.0020381
-0.00203741
-0.00203607
-0.00203412
-0.00203159
-0.00202851
-0.00202493
-0.00202088
-0.00201642
-0.00201159
-0.00200646
-0.00200107
-0.0019955
-0.00198981
-0.00198407
-0.00197833
-0.00197267
-0.00196716
-0.00196186
-0.00195685
-0.00195221
-0.00194773
-0.00194315
-6.34666e-05
-5.78621e-05
-5.27697e-05
-4.78477e-05
-4.27568e-05
-3.75675e-05
-3.23282e-05
-2.70566e-05
-2.18105e-05
-1.66459e-05
-1.15868e-05
-6.70218e-06
-2.04132e-06
2.35623e-06
6.43661e-06
1.0135e-05
1.34119e-05
1.6241e-05
1.85607e-05
2.03298e-05
2.15469e-05
2.21577e-05
2.21364e-05
2.14516e-05
2.01012e-05
1.8063e-05
1.53027e-05
1.18257e-05
7.63928e-06
2.715e-06
-2.96022e-06
-9.38008e-06
-1.6537e-05
-2.44423e-05
-3.30987e-05
-4.24995e-05
-5.2625e-05
-6.34695e-05
-7.50448e-05
-8.73402e-05
-0.000100337
-0.000114023
-0.000128396
-0.000143455
-0.000159182
-0.000175547
-0.000192546
-0.000210174
-0.000228414
-0.000247234
-0.000266615
-0.00028655
-0.000307035
-0.000328054
-0.000349579
-0.000371587
-0.000394068
-0.000417012
-0.000440397
-0.000464196
-0.00048839
-0.000512963
-0.000537902
-0.000563187
-0.00058879
-0.000614689
-0.000640869
-0.000667313
-0.000694002
-0.000720909
-0.000748011
-0.000775295
-0.000802747
-0.000830349
-0.000858078
-0.000885905
-0.000913813
-0.000941783
-0.000969798
-0.000997838
-0.00102588
-0.00105391
-0.0010819
-0.00110985
-0.00113774
-0.00116554
-0.00119324
-0.0012208
-0.0012482
-0.00127544
-0.00130248
-0.00132931
-0.0013559
-0.00138224
-0.0014083
-0.00143407
-0.00145953
-0.00148466
-0.00150943
-0.00153383
-0.00155783
-0.00158143
-0.00160459
-0.00162731
-0.00164957
-0.00167134
-0.00169262
-0.00171338
-0.00173361
-0.0017533
-0.00177242
-0.00179095
-0.00180887
-0.00182618
-0.00184284
-0.00185887
-0.00187423
-0.00188893
-0.00190294
-0.00191626
-0.00192887
-0.00194076
-0.00195193
-0.00196236
-0.00197205
-0.001981
-0.0019892
-0.00199666
-0.00200336
-0.0020093
-0.0020145
-0.00201894
-0.00202264
-0.0020256
-0.00202784
-0.00202936
-0.0020302
-0.00203035
-0.00202985
-0.00202872
-0.00202697
-0.00202465
-0.00202178
-0.00201841
-0.00201457
-0.0020103
-0.00200564
-0.00200066
-0.0019954
-0.00198992
-0.00198427
-0.00197851
-0.00197269
-0.00196687
-0.00196111
-0.00195545
-0.00194998
-0.00194475
-0.00193943
-0.00193371
-7.40099e-05
-6.7248e-05
-6.12684e-05
-5.5681e-05
-5.00398e-05
-4.43938e-05
-3.87791e-05
-3.32564e-05
-2.78245e-05
-2.25265e-05
-1.74103e-05
-1.25252e-05
-7.8847e-06
-3.55235e-06
4.21279e-07
3.99751e-06
7.14383e-06
9.81275e-06
1.19608e-05
1.35783e-05
1.46307e-05
1.50755e-05
1.48816e-05
1.40491e-05
1.25594e-05
1.03759e-05
7.49061e-06
3.91154e-06
-3.75118e-07
-5.40021e-06
-1.11581e-05
-1.76335e-05
-2.48375e-05
-3.27884e-05
-4.14744e-05
-5.08803e-05
-6.09975e-05
-7.1832e-05
-8.33882e-05
-9.56427e-05
-0.000108579
-0.000122196
-0.000136503
-0.00015148
-0.000167104
-0.000183359
-0.000200244
-0.000217748
-0.000235846
-0.000254511
-0.000273735
-0.000293513
-0.000313833
-0.000334671
-0.000356002
-0.000377813
-0.000400097
-0.000422839
-0.000446011
-0.000469588
-0.000493554
-0.0005179
-0.000542607
-0.000567652
-0.000593008
-0.000618655
-0.000644584
-0.000670774
-0.000697205
-0.000723851
-0.000750692
-0.000777715
-0.000804905
-0.000832242
-0.000859699
-0.000887252
-0.000914886
-0.000942584
-0.000970325
-0.000998088
-0.00102585
-0.00105361
-0.00108133
-0.001109
-0.00113662
-0.00116415
-0.00119157
-0.00121886
-0.001246
-0.00127297
-0.00129975
-0.00132631
-0.00135264
-0.00137872
-0.00140452
-0.00143004
-0.00145525
-0.00148013
-0.00150466
-0.00152882
-0.0015526
-0.00157597
-0.00159892
-0.00162143
-0.00164348
-0.00166506
-0.00168614
-0.00170672
-0.00172678
-0.0017463
-0.00176526
-0.00178364
-0.00180142
-0.00181859
-0.00183514
-0.00185105
-0.00186631
-0.00188092
-0.00189485
-0.0019081
-0.00192066
-0.00193251
-0.00194366
-0.00195407
-0.00196377
-0.00197273
-0.00198096
-0.00198845
-0.0019952
-0.00200122
-0.00200649
-0.00201103
-0.00201484
-0.00201792
-0.00202029
-0.00202196
-0.00202294
-0.00202326
-0.00202293
-0.00202197
-0.0020204
-0.00201826
-0.00201557
-0.00201237
-0.00200869
-0.00200456
-0.00200003
-0.00199515
-0.00198996
-0.00198451
-0.00197885
-0.00197301
-0.00196706
-0.00196102
-0.00195496
-0.00194891
-0.00194293
-0.00193707
-0.00193092
-0.00192407
-8.45027e-05
-7.66045e-05
-6.97622e-05
-6.3515e-05
-5.73014e-05
-5.11749e-05
-4.51786e-05
-3.93523e-05
-3.36792e-05
-2.82185e-05
-2.30022e-05
-1.80509e-05
-1.33977e-05
-9.10562e-06
-5.19169e-06
-1.69153e-06
1.34639e-06
3.89112e-06
5.91456e-06
7.40782e-06
8.31065e-06
8.60425e-06
8.27954e-06
7.31834e-06
5.68828e-06
3.37658e-06
3.91146e-07
-3.28716e-06
-7.67762e-06
-1.27908e-05
-1.86161e-05
-2.51499e-05
-3.24113e-05
-4.04059e-05
-4.91159e-05
-5.8529e-05
-6.86519e-05
-7.9488e-05
-9.10221e-05
-0.000103237
-0.000116128
-0.0001297
-0.000143946
-0.000158843
-0.000174377
-0.000190541
-0.000207328
-0.00022472
-0.000242688
-0.000261214
-0.000280299
-0.000299937
-0.000320105
-0.000340778
-0.000361937
-0.000383574
-0.00040568
-0.000428234
-0.000451209
-0.000474582
-0.000498344
-0.000522482
-0.000546972
-0.000571791
-0.000596918
-0.000622337
-0.000648036
-0.000673991
-0.00070018
-0.000726583
-0.000753184
-0.000779966
-0.000806914
-0.000834005
-0.000861211
-0.000888512
-0.000915893
-0.000943339
-0.000970825
-0.00099833
-0.00102584
-0.00105333
-0.0010808
-0.00110823
-0.00113559
-0.00116287
-0.00119004
-0.00121708
-0.00124397
-0.00127069
-0.00129722
-0.00132354
-0.00134962
-0.00137546
-0.00140103
-0.00142631
-0.00145129
-0.00147594
-0.00150025
-0.0015242
-0.00154776
-0.00157093
-0.00159368
-0.001616
-0.00163786
-0.00165926
-0.00168017
-0.00170059
-0.00172049
-0.00173986
-0.00175868
-0.00177692
-0.00179457
-0.00181163
-0.00182806
-0.00184387
-0.00185905
-0.00187358
-0.00188745
-0.00190064
-0.00191316
-0.00192498
-0.0019361
-0.00194652
-0.00195621
-0.00196519
-0.00197345
-0.00198098
-0.00198779
-0.00199387
-0.00199922
-0.00200385
-0.00200775
-0.00201095
-0.00201344
-0.00201524
-0.00201636
-0.00201682
-0.00201664
-0.00201583
-0.00201441
-0.00201242
-0.00200988
-0.0020068
-0.00200324
-0.00199922
-0.00199478
-0.00198995
-0.00198479
-0.00197932
-0.0019736
-0.00196764
-0.0019615
-0.00195522
-0.00194882
-0.00194233
-0.00193582
-0.00192933
-0.00192235
-0.00191438
-9.48515e-05
-8.58304e-05
-7.81576e-05
-7.12346e-05
-6.44281e-05
-5.78232e-05
-5.14126e-05
-4.52364e-05
-3.93167e-05
-3.36683e-05
-2.83029e-05
-2.32511e-05
-1.85635e-05
-1.42634e-05
-1.03636e-05
-6.92073e-06
-3.96045e-06
-1.5016e-06
4.339e-07
1.80468e-06
2.58782e-06
2.7657e-06
2.32748e-06
1.24392e-06
-5.08808e-07
-2.92244e-06
-6.00269e-06
-9.78503e-06
-1.42722e-05
-1.94578e-05
-2.5344e-05
-3.19459e-05
-3.92687e-05
-4.73e-05
-5.60313e-05
-6.5463e-05
-7.56022e-05
-8.64401e-05
-9.7955e-05
-0.000110141
-0.000123
-0.000136537
-0.000150728
-0.000165555
-0.000181013
-0.000197102
-0.000213804
-0.000231092
-0.000248946
-0.000267356
-0.000286324
-0.000305834
-0.000325859
-0.00034638
-0.000367388
-0.000388875
-0.00041082
-0.000433199
-0.000455992
-0.000479185
-0.000502764
-0.00052671
-0.000550999
-0.00057561
-0.000600528
-0.000625737
-0.000651224
-0.000676964
-0.000702931
-0.000729111
-0.000755491
-0.000782053
-0.000808776
-0.000835637
-0.000862611
-0.000889681
-0.000916831
-0.000944043
-0.000971295
-0.000998562
-0.00102583
-0.0010531
-0.00108033
-0.00110753
-0.00113466
-0.0011617
-0.00118863
-0.00121544
-0.0012421
-0.00126859
-0.0012949
-0.00132099
-0.00134685
-0.00137246
-0.00139782
-0.00142288
-0.00144765
-0.00147209
-0.0014962
-0.00151995
-0.00154332
-0.00156631
-0.00158888
-0.00161102
-0.00163271
-0.00165394
-0.0016747
-0.00169498
-0.00171474
-0.00173397
-0.00175266
-0.00177078
-0.00178832
-0.00180527
-0.00182161
-0.00183734
-0.00185244
-0.0018669
-0.00188072
-0.00189387
-0.00190635
-0.00191815
-0.00192926
-0.00193967
-0.00194937
-0.00195837
-0.00196666
-0.00197424
-0.0019811
-0.00198724
-0.00199267
-0.00199738
-0.00200138
-0.00200467
-0.00200727
-0.00200919
-0.00201043
-0.00201102
-0.00201097
-0.00201029
-0.002009
-0.00200713
-0.0020047
-0.00200173
-0.00199825
-0.0019943
-0.0019899
-0.0019851
-0.00197992
-0.0019744
-0.00196857
-0.00196246
-0.00195611
-0.00194953
-0.00194277
-0.00193583
-0.00192878
-0.00192165
-0.00191384
-0.0019048
-0.000104881
-9.48322e-05
-8.63196e-05
-7.87236e-05
-7.13478e-05
-6.42341e-05
-5.74043e-05
-5.08796e-05
-4.46791e-05
-3.87993e-05
-3.32626e-05
-2.81043e-05
-2.3337e-05
-1.89914e-05
-1.50892e-05
-1.16793e-05
-8.75557e-06
-6.34685e-06
-4.48972e-06
-3.21985e-06
-2.53146e-06
-2.4423e-06
-2.98807e-06
-4.18386e-06
-6.02824e-06
-8.52856e-06
-1.17093e-05
-1.55891e-05
-2.01574e-05
-2.541e-05
-3.13638e-05
-3.80343e-05
-4.54109e-05
-5.34775e-05
-6.22362e-05
-7.16977e-05
-8.18574e-05
-9.26932e-05
-0.000104194
-0.000116367
-0.000129212
-0.000142715
-0.000156857
-0.000171629
-0.000187032
-0.000203057
-0.000219677
-0.00023687
-0.000254627
-0.000272944
-0.000291811
-0.000311206
-0.000331103
-0.000351492
-0.000372369
-0.00039372
-0.000415519
-0.00043774
-0.000460372
-0.000483402
-0.000506813
-0.000530584
-0.000554689
-0.000579113
-0.000603844
-0.000628863
-0.000654154
-0.000679694
-0.000705458
-0.000731436
-0.000757617
-0.000783978
-0.000810494
-0.000837142
-0.000863904
-0.000890763
-0.000917701
-0.000944698
-0.000971732
-0.000998783
-0.00102584
-0.00105289
-0.00107991
-0.00110689
-0.00113381
-0.00116064
-0.00118735
-0.00121395
-0.0012404
-0.00126668
-0.00129277
-0.00131866
-0.00134431
-0.00136973
-0.00139488
-0.00141975
-0.00144433
-0.00146858
-0.0014925
-0.00151608
-0.00153928
-0.00156209
-0.0015845
-0.00160648
-0.00162802
-0.00164911
-0.00166973
-0.00168987
-0.0017095
-0.00172862
-0.00174719
-0.00176521
-0.00178265
-0.00179951
-0.00181577
-0.00183143
-0.00184647
-0.00186088
-0.00187465
-0.00188777
-0.00190022
-0.00191201
-0.00192311
-0.00193352
-0.00194324
-0.00195226
-0.00196058
-0.0019682
-0.00197512
-0.00198132
-0.00198681
-0.00199161
-0.00199569
-0.00199908
-0.00200178
-0.0020038
-0.00200516
-0.00200586
-0.00200591
-0.00200534
-0.00200416
-0.00200238
-0.00200003
-0.00199714
-0.00199372
-0.00198981
-0.00198543
-0.00198062
-0.00197539
-0.00196979
-0.00196383
-0.00195753
-0.00195093
-0.00194405
-0.0019369
-0.00192949
-0.00192189
-0.00191412
-0.00190551
-0.00189543
-0.000114512
-0.000103461
-9.41435e-05
-8.59136e-05
-7.79515e-05
-7.03208e-05
-6.30764e-05
-5.62015e-05
-4.96885e-05
-4.35668e-05
-3.78493e-05
-3.25504e-05
-2.76779e-05
-2.327e-05
-1.93482e-05
-1.59306e-05
-1.30206e-05
-1.06514e-05
-8.86291e-06
-7.65124e-06
-7.03358e-06
-7.02969e-06
-7.6704e-06
-8.95172e-06
-1.08733e-05
-1.34624e-05
-1.67422e-05
-2.07017e-05
-2.53379e-05
-3.06603e-05
-3.66904e-05
-4.34238e-05
-5.08422e-05
-5.89477e-05
-6.77495e-05
-7.72458e-05
-8.74193e-05
-9.82552e-05
-0.000109758
-0.000121931
-0.000134765
-0.000148237
-0.000162342
-0.00017708
-0.000192441
-0.000208409
-0.000224958
-0.000242073
-0.000259751
-0.000277988
-0.000296764
-0.000316055
-0.000335844
-0.000356122
-0.000376884
-0.000398112
-0.000419776
-0.000441859
-0.00046435
-0.000487237
-0.000510497
-0.000534108
-0.000558049
-0.000582305
-0.000606868
-0.000631717
-0.00065683
-0.000682187
-0.000707769
-0.000733565
-0.000759563
-0.000785737
-0.000812064
-0.00083852
-0.00086509
-0.000891759
-0.000918503
-0.000945304
-0.00097214
-0.000998994
-0.00102585
-0.00105271
-0.00107954
-0.00110632
-0.00113304
-0.00115968
-0.0011862
-0.0012126
-0.00123886
-0.00126495
-0.00129085
-0.00131655
-0.00134202
-0.00136725
-0.00139222
-0.00141692
-0.00144132
-0.00146541
-0.00148916
-0.00151257
-0.00153562
-0.00155828
-0.00158054
-0.00160238
-0.00162378
-0.00164474
-0.00166524
-0.00168526
-0.00170479
-0.0017238
-0.00174227
-0.0017602
-0.00177756
-0.00179435
-0.00181054
-0.00182614
-0.00184113
-0.0018555
-0.00186923
-0.00188233
-0.00189476
-0.00190654
-0.00191764
-0.00192805
-0.00193779
-0.00194684
-0.0019552
-0.00196286
-0.00196983
-0.00197609
-0.00198166
-0.00198652
-0.00199069
-0.00199417
-0.00199696
-0.00199907
-0.00200052
-0.00200132
-0.00200147
-0.00200099
-0.00199989
-0.00199818
-0.0019959
-0.00199306
-0.00198968
-0.00198578
-0.00198139
-0.00197654
-0.00197124
-0.00196552
-0.0019594
-0.0019529