/*--------------------------------*- C++ -*----------------------------------*\
  =========                 |
  \\      /  F ield         | OpenFOAM: The Open Source CFD Toolbox
   \\    /   O peration     | Website:  https://openfoam.org
    \\  /    A nd           | Version:  7
     \\/     M anipulation  |
\*---------------------------------------------------------------------------*/
FoamFile
{
    version     2.0;
    format      ascii;
    class       surfaceScalarField;
    location    "0.25";
    object      phi;
}
// * * * * * * * * * * * * * * * * * * * * * * * * * * * * * * * * * * * * * //

dimensions      [0 3 -1 0 0 0 0];

internalField   nonuniform List<scalar> 
101920
(
-1.88523e-13
1.10442e-13
-5.79781e-13
3.9194e-13
-1.10699e-12
5.24159e-13
-1.51703e-12
4.12377e-13
-1.75293e-12
2.32849e-13
-1.7706e-12
1.52695e-14
-1.55561e-12
-2.09905e-13
-1.11897e-12
-4.45392e-13
-4.39341e-13
-6.6841e-13
4.56884e-13
-8.97229e-13
1.57069e-12
-1.11225e-12
2.89195e-12
-1.31838e-12
4.40646e-12
-1.51688e-12
6.10874e-12
-1.69907e-12
7.98178e-12
-1.87467e-12
1.00185e-11
-2.03659e-12
1.22052e-11
-2.18534e-12
1.45293e-11
-2.32599e-12
1.69842e-11
-2.45372e-12
1.95566e-11
-2.57049e-12
2.22335e-11
-2.67837e-12
2.50069e-11
-2.77475e-12
2.7869e-11
-2.85791e-12
3.08036e-11
-2.93533e-12
3.38083e-11
-3.00323e-12
3.68743e-11
-3.06128e-12
3.99879e-11
-3.11254e-12
4.31451e-11
-3.15594e-12
4.63395e-11
-3.1908e-12
4.95604e-11
-3.21916e-12
5.27998e-11
-3.24183e-12
5.60535e-11
-3.25678e-12
5.93148e-11
-3.26323e-12
6.25764e-11
-3.2624e-12
6.58336e-11
-3.25668e-12
6.90827e-11
-3.24582e-12
7.23161e-11
-3.23038e-12
7.55278e-11
-3.21123e-12
7.87129e-11
-3.18796e-12
8.18683e-11
-3.15827e-12
8.49897e-11
-3.12236e-12
8.80709e-11
-3.08226e-12
9.11102e-11
-3.03822e-12
9.41038e-11
-2.99108e-12
9.70483e-11
-2.94066e-12
9.99381e-11
-2.88821e-12
1.02772e-10
-2.8331e-12
1.05546e-10
-2.77467e-12
1.08258e-10
-2.7123e-12
1.10906e-10
-2.64708e-12
1.13486e-10
-2.58031e-12
1.15996e-10
-2.51166e-12
1.18436e-10
-2.4403e-12
1.20801e-10
-2.36621e-12
1.2309e-10
-2.2899e-12
1.25301e-10
-2.21158e-12
1.27435e-10
-2.13162e-12
1.29488e-10
-2.05068e-12
1.31459e-10
-1.96897e-12
1.33345e-10
-1.88658e-12
1.35147e-10
-1.80306e-12
1.36863e-10
-1.71747e-12
1.38492e-10
-1.62971e-12
1.40034e-10
-1.54082e-12
1.41486e-10
-1.45158e-12
1.42849e-10
-1.36204e-12
1.44122e-10
-1.27195e-12
1.45303e-10
-1.18095e-12
1.46392e-10
-1.08889e-12
1.47389e-10
-9.9648e-13
1.48293e-10
-9.0415e-13
1.49104e-10
-8.11488e-13
1.49822e-10
-7.18128e-13
1.50445e-10
-6.24012e-13
1.50973e-10
-5.29076e-13
1.51407e-10
-4.3352e-13
1.51746e-10
-3.37916e-13
1.5199e-10
-2.42703e-13
1.52139e-10
-1.47963e-13
1.52192e-10
-5.33429e-14
1.5215e-10
4.16887e-14
1.52013e-10
1.37082e-13
1.51781e-10
2.32561e-13
1.51453e-10
3.27968e-13
1.5103e-10
4.22904e-13
1.50513e-10
5.17206e-13
1.499e-10
6.11375e-13
1.49194e-10
7.05835e-13
1.48394e-10
8.00358e-13
1.47499e-10
8.94425e-13
1.46512e-10
9.87772e-13
1.45431e-10
1.08075e-12
1.44258e-10
1.17342e-12
1.42995e-10
1.26505e-12
1.41639e-10
1.35535e-12
1.40194e-10
1.44473e-12
1.38659e-10
1.53358e-12
1.37036e-10
1.62211e-12
1.35325e-10
1.71016e-12
1.33528e-10
1.79725e-12
1.31646e-10
1.88311e-12
1.2968e-10
1.96742e-12
1.27631e-10
2.04975e-12
1.25502e-10
2.13006e-12
1.23293e-10
2.20867e-12
1.21006e-10
2.28593e-12
1.18642e-10
2.36215e-12
1.16204e-10
2.43709e-12
1.13694e-10
2.5101e-12
1.11114e-10
2.58065e-12
1.08467e-10
2.64835e-12
1.05755e-10
2.71299e-12
1.0298e-10
2.77482e-12
1.00146e-10
2.83396e-12
9.72542e-11
2.89031e-12
9.43093e-11
2.94397e-12
9.13147e-11
2.99459e-12
8.82737e-11
3.04144e-12
8.51899e-11
3.08411e-12
8.20673e-11
3.12241e-12
7.89099e-11
3.15651e-12
7.5722e-11
3.18682e-12
7.25089e-11
3.21302e-12
6.92754e-11
3.23421e-12
6.60263e-11
3.24976e-12
6.27671e-11
3.25947e-12
5.95033e-11
3.26332e-12
5.62407e-11
3.26141e-12
5.2986e-11
3.25371e-12
4.9746e-11
3.2397e-12
4.65272e-11
3.21882e-12
4.33367e-11
3.19073e-12
4.01818e-11
3.15496e-12
3.70701e-11
3.11111e-12
3.40099e-11
3.05921e-12
3.10098e-11
2.99931e-12
2.80787e-11
2.9309e-12
2.52253e-11
2.85332e-12
2.24592e-11
2.76607e-12
1.97902e-11
2.66878e-12
1.72284e-11
2.56133e-12
1.47841e-11
2.44365e-12
1.24685e-11
2.31538e-12
1.02921e-11
2.17608e-12
8.26585e-12
2.02564e-12
6.40112e-12
1.86412e-12
4.70961e-12
1.69129e-12
3.20215e-12
1.50703e-12
1.88934e-12
1.31204e-12
7.81742e-13
1.10725e-12
-1.11725e-13
8.93679e-13
-7.84456e-13
6.72991e-13
-1.23278e-12
4.48219e-13
-1.45772e-12
2.24446e-13
-1.46783e-12
9.48819e-15
-1.28385e-12
-1.84494e-13
-9.45807e-13
-3.38138e-13
-5.26054e-13
-4.19558e-13
-1.50904e-13
-3.75248e-13
-1.51295e-13
-4.51322e-13
5.56488e-13
-1.21575e-12
1.16527e-12
-2.0105e-12
1.32465e-12
-2.57851e-12
9.85981e-13
-2.73439e-12
3.79349e-13
-2.35716e-12
-3.53606e-13
-1.41153e-12
-1.16155e-12
1.40946e-13
-1.99044e-12
2.29283e-12
-2.83027e-12
5.0517e-12
-3.64981e-12
8.39066e-12
-4.4525e-12
1.2292e-11
-5.2247e-12
1.67382e-11
-5.95651e-12
2.16897e-11
-6.65569e-12
2.71269e-11
-7.3127e-12
3.30206e-11
-7.92598e-12
3.93303e-11
-8.50147e-12
4.60372e-11
-9.03292e-12
5.31081e-11
-9.52155e-12
6.05083e-11
-9.97376e-12
6.8215e-11
-1.03851e-11
7.61994e-11
-1.07561e-11
8.44286e-11
-1.10913e-11
9.28798e-11
-1.13917e-11
1.01532e-10
-1.16544e-11
1.10352e-10
-1.18857e-11
1.1932e-10
-1.20866e-11
1.28416e-10
-1.22534e-11
1.37614e-10
-1.23891e-11
1.46893e-10
-1.24978e-11
1.56235e-10
-1.25802e-11
1.65622e-10
-1.26367e-11
1.75031e-10
-1.26698e-11
1.84443e-10
-1.26797e-11
1.93846e-10
-1.26649e-11
2.03224e-10
-1.26259e-11
2.12559e-10
-1.25662e-11
2.21837e-10
-1.24881e-11
2.31045e-10
-1.23914e-11
2.40169e-10
-1.2277e-11
2.49193e-10
-1.2146e-11
2.58107e-10
-1.19993e-11
2.669e-10
-1.18356e-11
2.75562e-10
-1.16564e-11
2.84082e-10
-1.14632e-11
2.92449e-10
-1.12577e-11
3.00656e-10
-1.10401e-11
3.08693e-10
-1.08108e-11
3.16551e-10
-1.05702e-11
3.24223e-10
-1.03195e-11
3.31701e-10
-1.00591e-11
3.38981e-10
-9.78914e-12
3.46055e-10
-9.51081e-12
3.52915e-10
-9.22551e-12
3.59556e-10
-8.93309e-12
3.65974e-10
-8.63274e-12
3.72165e-10
-8.32443e-12
3.78121e-10
-8.00941e-12
3.8384e-10
-7.68877e-12
3.89318e-10
-7.36329e-12
3.94551e-10
-7.03373e-12
3.99536e-10
-6.70036e-12
4.04268e-10
-6.36235e-12
4.08744e-10
-6.01962e-12
4.12963e-10
-5.67276e-12
4.16923e-10
-5.32245e-12
4.20621e-10
-4.96941e-12
4.24054e-10
-4.61417e-12
4.27219e-10
-4.25622e-12
4.30117e-10
-3.89501e-12
4.32745e-10
-3.53132e-12
4.35103e-10
-3.16655e-12
4.37188e-10
-2.80125e-12
4.38999e-10
-2.43491e-12
4.40536e-10
-2.06667e-12
4.41798e-10
-1.69649e-12
4.42784e-10
-1.32508e-12
4.43493e-10
-9.53064e-13
4.43926e-10
-5.80919e-13
4.44081e-10
-2.09045e-13
4.4396e-10
1.62928e-13
4.43561e-10
5.35384e-13
4.42886e-10
9.08015e-13
4.41933e-10
1.2803e-12
4.40704e-10
1.65191e-12
4.392e-10
2.02253e-12
4.37421e-10
2.39197e-12
4.35368e-10
2.76016e-12
4.33041e-10
3.12702e-12
4.30442e-10
3.49252e-12
4.27572e-10
3.85648e-12
4.24433e-10
4.21873e-12
4.21026e-10
4.57931e-12
4.17353e-10
4.93772e-12
4.13416e-10
5.29296e-12
4.09218e-10
5.64448e-12
4.04762e-10
5.99223e-12
4.00049e-10
6.3365e-12
3.95082e-10
6.6773e-12
3.89865e-10
7.01388e-12
3.84401e-10
7.34558e-12
3.78694e-10
7.67234e-12
3.72748e-10
7.99423e-12
3.66569e-10
8.31061e-12
3.6016e-10
8.62049e-12
3.53526e-10
8.92303e-12
3.46672e-10
9.21803e-12
3.39603e-10
9.50569e-12
3.32326e-10
9.78566e-12
3.24848e-10
1.00572e-11
3.17176e-10
1.03195e-11
3.09317e-10
1.0572e-11
3.01279e-10
1.08137e-11
2.9307e-10
1.10442e-11
2.84699e-10
1.12625e-11
2.76174e-10
1.14682e-11
2.67507e-10
1.16612e-11
2.58708e-10
1.18406e-11
2.49787e-10
1.20052e-11
2.40757e-10
1.21537e-11
2.31629e-10
1.22852e-11
2.22416e-10
1.23994e-11
2.13131e-10
1.24962e-11
2.0379e-10
1.25745e-11
1.94406e-10
1.26327e-11
1.84996e-10
1.26696e-11
1.75576e-10
1.26839e-11
1.66164e-10
1.26748e-11
1.56776e-10
1.26414e-11
1.47433e-10
1.2583e-11
1.38152e-10
1.24984e-11
1.28956e-10
1.23864e-11
1.19865e-10
1.22457e-11
1.10901e-10
1.2075e-11
1.02088e-10
1.18729e-11
9.34484e-11
1.16385e-11
8.50079e-11
1.13709e-11
7.67916e-11
1.10691e-11
6.88259e-11
1.07312e-11
6.11382e-11
1.0356e-11
5.37561e-11
9.94259e-12
4.67082e-11
9.4905e-12
4.00239e-11
8.99895e-12
3.37327e-11
8.46715e-12
2.78638e-11
7.89456e-12
2.24462e-11
7.28124e-12
1.75094e-11
6.62777e-12
1.30811e-11
5.93512e-12
9.18681e-12
5.20548e-12
5.8498e-12
4.44295e-12
3.08882e-12
3.65364e-12
9.15759e-13
2.84597e-12
-6.67157e-13
2.03194e-12
-1.67186e-12
1.22979e-12
-2.12994e-12
4.67332e-13
-2.10132e-12
-2.14318e-13
-1.68551e-12
-7.55311e-13
-1.03608e-12
-1.06956e-12
-3.73608e-13
-1.03747e-12
-5.24933e-13
-4.43603e-13
9.96735e-13
-1.20486e-12
1.92383e-12
-1.86628e-12
1.98111e-12
-2.13858e-12
1.25938e-12
-1.79667e-12
4.17847e-14
-6.94333e-13
-1.46223e-12
1.26496e-12
-3.11249e-12
4.11687e-12
-4.8475e-12
7.89261e-12
-6.59672e-12
1.25792e-11
-8.33667e-12
1.81626e-11
-1.00371e-11
2.4622e-11
-1.16779e-11
3.19138e-11
-1.32525e-11
4.00056e-11
-1.47489e-11
4.88578e-11
-1.616e-11
5.84195e-11
-1.74898e-11
6.86489e-11
-1.87326e-11
7.95037e-11
-1.98837e-11
9.09293e-11
-2.09518e-11
1.02887e-10
-2.19322e-11
1.15333e-10
-2.28258e-11
1.28219e-10
-2.36397e-11
1.41502e-10
-2.43748e-11
1.55147e-10
-2.50297e-11
1.69107e-10
-2.56116e-11
1.83344e-10
-2.61226e-11
1.97823e-10
-2.65624e-11
2.12507e-10
-2.69346e-11
2.27356e-10
-2.72425e-11
2.4234e-10
-2.74872e-11
2.57429e-10
-2.76701e-11
2.7259e-10
-2.77962e-11
2.87792e-10
-2.78695e-11
3.03007e-10
-2.78921e-11
3.18209e-10
-2.78635e-11
3.33369e-10
-2.7787e-11
3.48462e-10
-2.76646e-11
3.63467e-10
-2.74968e-11
3.78362e-10
-2.72861e-11
3.93121e-10
-2.70358e-11
4.07725e-10
-2.67488e-11
4.22155e-10
-2.64258e-11
4.36392e-10
-2.60688e-11
4.50417e-10
-2.56796e-11
4.64214e-10
-2.52605e-11
4.77767e-10
-2.4812e-11
4.91062e-10
-2.43352e-11
5.04084e-10
-2.38322e-11
5.16819e-10
-2.33056e-11
5.29254e-10
-2.27566e-11
5.41378e-10
-2.21852e-11
5.5318e-10
-2.15921e-11
5.64649e-10
-2.09796e-11
5.75774e-10
-2.03499e-11
5.86547e-10
-1.9704e-11
5.9696e-10
-1.90425e-11
6.07002e-10
-1.8366e-11
6.16667e-10
-1.76752e-11
6.25947e-10
-1.69711e-11
6.34837e-10
-1.62548e-11
6.4333e-10
-1.55271e-11
6.51421e-10
-1.47895e-11
6.59102e-10
-1.40431e-11
6.66371e-10
-1.32876e-11
6.73221e-10
-1.25234e-11
6.79651e-10
-1.17513e-11
6.85655e-10
-1.09726e-11
6.91229e-10
-1.01883e-11
6.96371e-10
-9.39831e-12
7.01077e-10
-8.60253e-12
7.05346e-10
-7.8015e-12
7.09174e-10
-6.99626e-12
7.12561e-10
-6.18764e-12
7.15503e-10
-5.37629e-12
7.18e-10
-4.56212e-12
7.2005e-10
-3.74502e-12
7.21652e-10
-2.92584e-12
7.22804e-10
-2.10546e-12
7.23506e-10
-1.28416e-12
7.23759e-10
-4.62048e-13
7.23562e-10
3.60618e-13
7.22915e-10
1.18331e-12
7.21817e-10
2.00544e-12
7.2027e-10
2.82667e-12
7.18274e-10
3.64692e-12
7.1583e-10
4.46575e-12
7.1294e-10
5.28234e-12
7.09604e-10
6.0962e-12
7.05825e-10
6.90711e-12
7.01603e-10
7.71462e-12
6.96942e-10
8.51821e-12
6.91845e-10
9.31729e-12
6.86312e-10
1.01115e-11
6.80349e-10
1.09005e-11
6.73957e-10
1.16832e-11
6.67141e-10
1.2459e-11
6.59905e-10
1.32275e-11
6.52255e-10
1.39881e-11
6.44193e-10
1.47402e-11
6.35727e-10
1.54823e-11
6.2686e-10
1.62133e-11
6.176e-10
1.69325e-11
6.07953e-10
1.76398e-11
5.97927e-10
1.83349e-11
5.87529e-10
1.90169e-11
5.76768e-10
1.96843e-11
5.65651e-10
2.03356e-11
5.54189e-10
2.09693e-11
5.42391e-10
2.15847e-11
5.30269e-10
2.21803e-11
5.17833e-10
2.27552e-11
5.05095e-10
2.33085e-11
4.92069e-10
2.38386e-11
4.78767e-10
2.43443e-11
4.65206e-10
2.48237e-11
4.514e-10
2.52751e-11
4.37365e-10
2.56968e-11
4.23117e-10
2.60875e-11
4.08675e-10
2.64457e-11
3.94058e-10
2.67696e-11
3.79286e-10
2.70573e-11
3.64379e-10
2.73068e-11
3.4936e-10
2.7516e-11
3.34252e-10
2.7683e-11
3.19078e-10
2.78059e-11
3.03863e-10
2.78824e-11
2.88635e-10
2.79103e-11
2.73422e-10
2.78875e-11
2.58252e-10
2.78115e-11
2.43156e-10
2.76798e-11
2.28164e-10
2.74901e-11
2.13309e-10
2.72402e-11
1.98626e-10
2.69278e-11
1.8415e-10
2.65503e-11
1.69917e-10
2.61053e-11
1.55965e-10
2.55901e-11
1.42334e-10
2.50023e-11
1.29063e-10
2.43396e-11
1.16193e-10
2.35998e-11
1.03768e-10
2.27803e-11
9.18308e-11
2.18792e-11
8.04253e-11
2.08951e-11
6.95964e-11
1.9827e-11
5.93892e-11
1.86739e-11
4.9848e-11
1.74354e-11
4.10162e-11
1.61122e-11
3.29364e-11
1.47065e-11
2.5649e-11
1.32219e-11
1.91903e-11
1.16639e-11
1.35913e-11
1.00419e-11
8.87537e-12
8.36935e-12
5.05478e-12
6.66573e-12
2.12736e-12
4.95852e-12
7.06618e-14
3.28623e-12
-1.16527e-12
1.70335e-12
-1.66712e-12
2.87083e-13
-1.5688e-12
-8.54653e-13
-1.06348e-12
-1.57551e-12
-4.16645e-13
-1.68438e-12
-9.41393e-13
-3.68166e-13
1.36934e-12
-8.59051e-13
2.4211e-12
-1.07394e-12
2.20397e-12
-7.29428e-13
9.08459e-13
4.16063e-13
-1.10893e-12
2.54246e-12
-3.57409e-12
5.73981e-12
-6.31588e-12
1.00904e-11
-9.19101e-12
1.56134e-11
-1.21206e-11
2.23137e-11
-1.50402e-11
3.01812e-11
-1.79008e-11
3.91818e-11
-2.06783e-11
4.92767e-11
-2.33493e-11
6.04224e-11
-2.58924e-11
7.25638e-11
-2.83044e-11
8.56466e-11
-3.0576e-11
9.96202e-11
-3.26995e-11
1.14416e-10
-3.46812e-11
1.2998e-10
-3.65172e-11
1.46255e-10
-3.82049e-11
1.63178e-10
-3.9752e-11
1.80695e-10
-4.11601e-11
1.98751e-10
-4.24313e-11
2.1729e-10
-4.35682e-11
2.36256e-10
-4.45795e-11
2.55599e-10
-4.54659e-11
2.75269e-10
-4.62298e-11
2.95218e-10
-4.68793e-11
3.15395e-10
-4.74188e-11
3.35759e-10
-4.78498e-11
3.56265e-10
-4.81762e-11
3.76869e-10
-4.84037e-11
3.97532e-10
-4.85362e-11
4.18218e-10
-4.8577e-11
4.38888e-10
-4.85307e-11
4.59505e-10
-4.84025e-11
4.80036e-10
-4.81947e-11
5.00449e-10
-4.79089e-11
5.20713e-10
-4.75499e-11
5.40796e-10
-4.71218e-11
5.60671e-10
-4.66271e-11
5.80313e-10
-4.60686e-11
5.99695e-10
-4.54505e-11
6.18793e-10
-4.47764e-11
6.37582e-10
-4.40497e-11
6.56043e-10
-4.32718e-11
6.74153e-10
-4.24449e-11
6.91894e-10
-4.15724e-11
7.09246e-10
-4.06579e-11
7.26193e-10
-3.97031e-11
7.42719e-10
-3.87098e-11
7.58807e-10
-3.76801e-11
7.74441e-10
-3.66164e-11
7.89609e-10
-3.55207e-11
8.043e-10
-3.4395e-11
8.185e-10
-3.32413e-11
8.32197e-10
-3.20617e-11
8.4538e-10
-3.08577e-11
8.5804e-10
-2.96311e-11
8.70169e-10
-2.83834e-11
8.81757e-10
-2.71157e-11
8.92795e-10
-2.58294e-11
9.03278e-10
-2.45261e-11
9.13197e-10
-2.3207e-11
9.22548e-10
-2.18735e-11
9.31323e-10
-2.05268e-11
9.39518e-10
-1.91678e-11
9.47127e-10
-1.77976e-11
9.54146e-10
-1.64171e-11
9.60572e-10
-1.5027e-11
9.66401e-10
-1.36289e-11
9.71627e-10
-1.22239e-11
9.7625e-10
-1.08123e-11
9.80267e-10
-9.3944e-12
9.83677e-10
-7.97117e-12
9.86476e-10
-6.54344e-12
9.88663e-10
-5.11248e-12
9.90236e-10
-3.6792e-12
9.91195e-10
-2.24407e-12
9.91541e-10
-8.075e-13
9.91271e-10
6.3003e-13
9.90387e-10
2.06771e-12
9.88889e-10
3.5045e-12
9.86776e-10
4.93947e-12
9.84051e-10
6.3722e-12
9.80715e-10
7.80222e-12
9.76769e-10
9.22865e-12
9.72214e-10
1.06503e-11
9.67054e-10
1.20664e-11
9.61291e-10
1.34769e-11
9.54928e-10
1.4881e-11
9.47969e-10
1.62774e-11
9.40417e-10
1.76645e-11
9.32277e-10
1.90414e-11
9.23554e-10
2.04069e-11
9.14252e-10
2.17605e-11
9.04378e-10
2.31012e-11
8.93938e-10
2.44279e-11
8.82938e-10
2.57394e-11
8.71386e-10
2.70341e-11
8.5929e-10
2.83101e-11
8.46658e-10
2.95657e-11
8.335e-10
3.07994e-11
8.19826e-10
3.20105e-11
8.05645e-10
3.31976e-11
7.90969e-10
3.43591e-11
7.75811e-10
3.5493e-11
7.60184e-10
3.65967e-11
7.44101e-10
3.76681e-11
7.27577e-10
3.8705e-11
7.10628e-10
3.97052e-11
6.93271e-10
4.06666e-11
6.75522e-10
4.15872e-11
6.57401e-10
4.24647e-11
6.38927e-10
4.32965e-11
6.20123e-10
4.40798e-11
6.0101e-10
4.48111e-11
5.8161e-10
4.54877e-11
5.61949e-10
4.61069e-11
5.42052e-10
4.6666e-11
5.21946e-10
4.71621e-11
5.0166e-10
4.7592e-11
4.81224e-10
4.7952e-11
4.6067e-10
4.82382e-11
4.4003e-10
4.84468e-11
4.19338e-10
4.85746e-11
3.9863e-10
4.86178e-11
3.77944e-10
4.85728e-11
3.57319e-10
4.84359e-11
3.36796e-10
4.82029e-11
3.16417e-10
4.78693e-11
2.96226e-10
4.74311e-11
2.76269e-10
4.68847e-11
2.56592e-10
4.62261e-11
2.37246e-10
4.5451e-11
2.1828e-10
4.45556e-11
1.99747e-10
4.35357e-11
1.817e-10
4.23872e-11
1.64192e-10
4.11067e-11
1.4728e-10
3.96911e-11
1.31022e-10
3.81372e-11
1.15473e-10
3.64427e-11
1.00694e-10
3.46063e-11
8.67397e-11
3.26275e-11
7.36684e-11
3.05066e-11
6.15348e-11
2.82455e-11
5.03914e-11
2.58488e-11
4.02879e-11
2.33244e-11
3.12678e-11
2.06834e-11
2.33675e-11
1.79422e-11
1.66127e-11
1.51245e-11
1.1015e-11
1.22636e-11
6.56758e-12
9.40541e-12
3.24007e-12
6.61277e-12
9.71415e-13
3.97137e-12
-3.39023e-13
1.59744e-12
-8.41361e-13
-3.52605e-13
-7.45329e-13
-1.67211e-12
-3.34125e-13
-2.096e-12
-1.27542e-12
-1.99306e-13
1.56661e-12
-2.81429e-13
2.49052e-12
1.42309e-13
1.7799e-12
1.33325e-12
-2.84555e-13
3.52231e-12
-3.29709e-12
6.87535e-12
-6.93395e-12
1.15147e-11
-1.09529e-11
1.75128e-11
-1.51857e-11
2.4902e-11
-1.95112e-11
3.3699e-11
-2.38315e-11
4.38814e-11
-2.80857e-11
5.54243e-11
-3.22244e-11
6.82887e-11
-3.62084e-11
8.2415e-11
-4.00206e-11
9.7749e-11
-4.36407e-11
1.1423e-10
-4.70542e-11
1.31786e-10
-5.02578e-11
1.5035e-10
-5.32482e-11
1.69857e-10
-5.60198e-11
1.90231e-10
-5.85779e-11
2.11404e-10
-6.09253e-11
2.33309e-10
-6.30633e-11
2.55878e-10
-6.49969e-11
2.79041e-10
-6.67336e-11
3.02736e-10
-6.82763e-11
3.26901e-10
-6.9629e-11
3.51469e-10
-7.07997e-11
3.76382e-10
-7.17952e-11
4.01586e-10
-7.26209e-11
4.27023e-10
-7.32823e-11
4.52637e-10
-7.37885e-11
4.78376e-10
-7.41445e-11
5.04193e-10
-7.4354e-11
5.30039e-10
-7.44236e-11
5.55867e-10
-7.43603e-11
5.81632e-10
-7.41694e-11
6.07294e-10
-7.38555e-11
6.32812e-10
-7.34243e-11
6.58144e-10
-7.28816e-11
6.83255e-10
-7.22329e-11
7.0811e-10
-7.14818e-11
7.32676e-10
-7.06336e-11
7.56919e-10
-6.9694e-11
7.80808e-10
-6.86678e-11
8.04317e-10
-6.75588e-11
8.27418e-10
-6.63712e-11
8.50082e-10
-6.51095e-11
8.72286e-10
-6.3778e-11
8.94007e-10
-6.23803e-11
9.15223e-10
-6.09193e-11
9.35914e-10
-5.9399e-11
9.56059e-10
-5.78236e-11
9.75638e-10
-5.61962e-11
9.94636e-10
-5.45193e-11
1.01304e-09
-5.27961e-11
1.03082e-09
-5.10292e-11
1.04798e-09
-4.92213e-11
1.0645e-09
-4.73754e-11
1.08036e-09
-4.54944e-11
1.09556e-09
-4.3581e-11
1.11008e-09
-4.16372e-11
1.12392e-09
-3.96649e-11
1.13706e-09
-3.76657e-11
1.14949e-09
-3.56413e-11
1.16121e-09
-3.35944e-11
1.17221e-09
-3.15277e-11
1.18249e-09
-2.94423e-11
1.19203e-09
-2.73387e-11
1.20083e-09
-2.52184e-11
1.20889e-09
-2.30836e-11
1.21619e-09
-2.09364e-11
1.22275e-09
-1.87784e-11
1.22855e-09
-1.66102e-11
1.23358e-09
-1.44322e-11
1.23786e-09
-1.2246e-11
1.24137e-09
-1.0053e-11
1.24411e-09
-7.85477e-12
1.24608e-09
-5.65285e-12
1.24729e-09
-3.44803e-12
1.24772e-09
-1.24092e-12
1.24738e-09
9.67543e-13
1.24628e-09
3.17609e-12
1.2444e-09
5.38336e-12
1.24175e-09
7.58821e-12
1.23833e-09
9.78971e-12
1.23415e-09
1.19866e-11
1.2292e-09
1.41777e-11
1.22349e-09
1.63615e-11
1.21702e-09
1.85367e-11
1.20979e-09
2.07026e-11
1.20181e-09
2.28581e-11
1.19309e-09
2.50018e-11
1.18362e-09
2.71317e-11
1.17342e-09
2.92459e-11
1.16248e-09
3.13424e-11
1.15082e-09
3.34203e-11
1.13845e-09
3.5478e-11
1.12536e-09
3.75137e-11
1.11158e-09
3.95252e-11
1.0971e-09
4.15103e-11
1.08194e-09
4.34669e-11
1.06611e-09
4.53929e-11
1.04963e-09
4.72859e-11
1.0325e-09
4.91434e-11
1.01473e-09
5.0963e-11
9.96349e-10
5.27423e-11
9.77363e-10
5.44783e-11
9.57792e-10
5.61679e-11
9.37652e-10
5.78077e-11
9.16962e-10
5.93946e-11
8.95742e-10
6.09252e-11
8.74013e-10
6.2396e-11
8.51797e-10
6.38036e-11
8.29117e-10
6.51442e-11
8.05999e-10
6.64141e-11
7.82469e-10
6.76091e-11
7.58555e-10
6.87248e-11
7.34287e-10
6.97567e-11
7.09693e-10
7.07003e-11
6.84808e-10
7.15512e-11
6.59665e-10
7.23051e-11
6.34299e-10
7.2957e-11
6.08749e-10
7.35017e-11
5.83053e-10
7.39337e-11
5.57253e-10
7.42473e-11
5.3139e-10
7.44369e-11
5.05511e-10
7.44973e-11
4.79661e-10
7.44228e-11
4.53889e-10
7.42076e-11
4.28245e-10
7.38461e-11
4.02782e-10
7.33321e-11
3.77554e-10
7.26591e-11
3.52617e-10
7.18212e-11
3.2803e-10
7.08127e-11
3.03852e-10
6.96281e-11
2.80146e-10
6.82612e-11
2.56975e-10
6.67066e-11
2.34404e-10
6.49585e-11
2.12498e-10
6.3012e-11
1.91326e-10
6.08627e-11
1.70955e-10
5.85071e-11
1.51455e-10
5.59424e-11
1.32895e-10
5.31668e-11
1.15341e-10
5.01805e-11
9.88619e-11
4.69856e-11
8.3521e-11
4.35863e-11
6.93795e-11
3.99902e-11
5.64932e-11
3.62101e-11
4.49109e-11
3.22646e-11
3.46729e-11
2.81797e-11
2.58067e-11
2.3991e-11
1.83233e-11
1.97471e-11
1.22137e-11
1.55147e-11
7.44343e-12
1.13823e-11
3.94648e-12
7.4675e-12
1.61773e-12
3.92556e-12
3.04871e-13
9.60167e-13
-2.01468e-13
-1.16579e-12
-1.79341e-13
-2.11844e-12
-1.45488e-12
4.27842e-15
1.56607e-12
4.37417e-13
2.06141e-12
1.62696e-12
5.89667e-13
3.81939e-12
-2.46995e-12
7.20736e-12
-6.68499e-12
1.1959e-11
-1.16781e-11
1.81812e-11
-1.71711e-11
2.5948e-11
-2.29554e-11
3.53044e-11
-2.88635e-11
4.62564e-11
-3.47829e-11
5.87899e-11
-4.06221e-11
7.28825e-11
-4.63116e-11
8.84798e-11
-5.18082e-11
1.05531e-10
-5.70748e-11
1.23975e-10
-6.20825e-11
1.43739e-10
-6.68176e-11
1.64747e-10
-7.12692e-11
1.86927e-10
-7.54269e-11
2.10199e-10
-7.92899e-11
2.34481e-10
-8.28618e-11
2.59697e-10
-8.61409e-11
2.85768e-10
-8.91324e-11
3.12615e-10
-9.18423e-11
3.40159e-10
-9.42782e-11
3.68329e-10
-9.64435e-11
3.9705e-10
-9.83469e-11
4.26245e-10
-9.99976e-11
4.55851e-10
-1.01402e-10
4.85799e-10
-1.02568e-10
5.16022e-10
-1.03505e-10
5.46456e-10
-1.04223e-10
5.77043e-10
-1.04729e-10
6.07722e-10
-1.05031e-10
6.38437e-10
-1.05137e-10
6.6913e-10
-1.05057e-10
6.99754e-10
-1.04794e-10
7.30257e-10
-1.04358e-10
7.6059e-10
-1.03757e-10
7.90706e-10
-1.02999e-10
8.20563e-10
-1.0209e-10
8.50119e-10
-1.01036e-10
8.79333e-10
-9.98464e-11
9.08166e-10
-9.85274e-11
9.36582e-10
-9.70852e-11
9.64548e-10
-9.55247e-11
9.92031e-10
-9.38528e-11
1.019e-09
-9.20765e-11
1.04542e-09
-9.02013e-11
1.07127e-09
-8.82314e-11
1.09652e-09
-8.61718e-11
1.12115e-09
-8.40276e-11
1.14513e-09
-8.18043e-11
1.16844e-09
-7.9507e-11
1.19106e-09
-7.71395e-11
1.21297e-09
-7.4706e-11
1.23416e-09
-7.22107e-11
1.25459e-09
-6.96574e-11
1.27426e-09
-6.70494e-11
1.29316e-09
-6.43907e-11
1.31126e-09
-6.16854e-11
1.32856e-09
-5.8937e-11
1.34505e-09
-5.61477e-11
1.3607e-09
-5.332e-11
1.37552e-09
-5.04568e-11
1.38948e-09
-4.75616e-11
1.40259e-09
-4.46372e-11
1.41484e-09
-4.16857e-11
1.42621e-09
-3.87086e-11
1.43669e-09
-3.5708e-11
1.4463e-09
-3.26866e-11
1.45501e-09
-2.9647e-11
1.46282e-09
-2.65913e-11
1.46973e-09
-2.35212e-11
1.47574e-09
-2.04374e-11
1.48083e-09
-1.73418e-11
1.48502e-09
-1.42369e-11
1.48829e-09
-1.11245e-11
1.49064e-09
-8.00622e-12
1.49207e-09
-4.88334e-12
1.49259e-09
-1.75733e-12
1.49219e-09
1.36994e-12
1.49087e-09
4.49703e-12
1.48863e-09
7.6226e-12
1.48547e-09
1.0745e-11
1.4814e-09
1.38625e-11
1.47641e-09
1.69732e-11
1.47051e-09
2.00755e-11
1.46371e-09
2.31678e-11
1.456e-09
2.62483e-11
1.44739e-09
2.9315e-11
1.43788e-09
3.23661e-11
1.42748e-09
3.53998e-11
1.4162e-09
3.84136e-11
1.40404e-09
4.1405e-11
1.39101e-09
4.43719e-11
1.37712e-09
4.73122e-11
1.36237e-09
5.02238e-11
1.34678e-09
5.31039e-11
1.33036e-09
5.59491e-11
1.31311e-09
5.87562e-11
1.29506e-09
6.15224e-11
1.2762e-09
6.42451e-11
1.25657e-09
6.69211e-11
1.23617e-09
6.95468e-11
1.21501e-09
7.21186e-11
1.19312e-09
7.46325e-11
1.17051e-09
7.70844e-11
1.14721e-09
7.94698e-11
1.12324e-09
8.17842e-11
1.09861e-09
8.40232e-11
1.07335e-09
8.61824e-11
1.04749e-09
8.82571e-11
1.02105e-09
9.02421e-11
9.94062e-10
9.21318e-11
9.66556e-10
9.39208e-11
9.38562e-10
9.5603e-11
9.10114e-10
9.71727e-11
8.81245e-10
9.8624e-11
8.51994e-10
9.99507e-11
8.22399e-10
1.01146e-10
7.925e-10
1.02205e-10
7.62339e-10
1.03118e-10
7.31961e-10
1.0388e-10
7.01412e-10
1.04482e-10
6.70741e-10
1.04918e-10
6.39998e-10
1.05179e-10
6.09237e-10
1.05258e-10
5.78513e-10
1.05148e-10
5.47881e-10
1.04839e-10
5.17403e-10
1.04325e-10
4.87138e-10
1.03596e-10
4.57152e-10
1.02645e-10
4.2751e-10
1.01463e-10
3.98279e-10
1.00043e-10
3.69531e-10
9.83759e-11
3.41337e-10
9.64553e-11
3.13771e-10
9.42732e-11
2.86906e-10
9.18226e-11
2.6082e-10
8.90971e-11
2.35591e-10
8.60913e-11
2.11297e-10
8.28011e-11
1.88016e-10
7.92234e-11
1.65825e-10
7.5357e-11
1.44803e-10
7.12028e-11
1.25023e-10
6.67649e-11
1.06557e-10
6.2051e-11
8.94738e-11
5.70732e-11
7.38338e-11
5.18501e-11
5.96902e-11
4.64079e-11
4.70858e-11
4.07834e-11
3.60502e-11
3.50261e-11
2.65959e-11
2.92016e-11
1.87139e-11
2.33968e-11
1.23697e-11
1.77259e-11
7.49832e-12
1.23379e-11
3.99824e-12
7.4248e-12
1.72453e-12
3.23347e-12
4.81889e-13
7.69866e-14
1.55804e-14
-1.65213e-12
-1.43947e-12
2.26235e-13
1.34e-12
1.22581e-12
1.05856e-12
3.27003e-12
-1.44751e-12
6.55343e-12
-5.75699e-12
1.12564e-11
-1.13845e-11
1.75122e-11
-1.79314e-11
2.54195e-11
-2.50838e-11
3.50538e-11
-3.25847e-11
4.6443e-11
-4.02535e-11
5.96009e-11
-4.79414e-11
7.45136e-11
-5.55336e-11
9.11478e-11
-6.29468e-11
1.09456e-10
-7.01193e-11
1.29384e-10
-7.69997e-11
1.5086e-10
-8.35569e-11
1.73809e-10
-8.97684e-11
1.98153e-10
-9.56128e-11
2.23809e-10
-1.01081e-10
2.50688e-10
-1.06172e-10
2.78707e-10
-1.10881e-10
3.07779e-10
-1.15211e-10
3.37813e-10
-1.19166e-10
3.68723e-10
-1.22755e-10
4.00425e-10
-1.2598e-10
4.32836e-10
-1.28851e-10
4.65868e-10
-1.31379e-10
4.99444e-10
-1.33573e-10
5.33486e-10
-1.35442e-10
5.67917e-10
-1.36998e-10
6.02661e-10
-1.38251e-10
6.37647e-10
-1.39211e-10
6.72808e-10
-1.39889e-10
7.08075e-10
-1.40297e-10
7.43383e-10
-1.40446e-10
7.7867e-10
-1.40344e-10
8.13878e-10
-1.40001e-10
8.48948e-10
-1.39427e-10
8.83824e-10
-1.38634e-10
9.18453e-10
-1.3763e-10
9.52788e-10
-1.36424e-10
9.86778e-10
-1.35026e-10
1.02038e-09
-1.33446e-10
1.05354e-09
-1.31693e-10
1.08623e-09
-1.29774e-10
1.1184e-09
-1.27697e-10
1.15002e-09
-1.25472e-10
1.18105e-09
-1.23106e-10
1.21146e-09
-1.20607e-10
1.24121e-09
-1.1798e-10
1.27027e-09
-1.15234e-10
1.29862e-09
-1.12375e-10
1.32622e-09
-1.09409e-10
1.35305e-09
-1.06343e-10
1.3791e-09
-1.03182e-10
1.40432e-09
-9.99326e-11
1.42871e-09
-9.65998e-11
1.45225e-09
-9.31889e-11
1.4749e-09
-8.97051e-11
1.49666e-09
-8.61533e-11
1.51752e-09
-8.2538e-11
1.53744e-09
-7.88637e-11
1.55643e-09
-7.51342e-11
1.57446e-09
-7.13532e-11
1.59153e-09
-6.75247e-11
1.60762e-09
-6.36529e-11
1.62272e-09
-5.97412e-11
1.63683e-09
-5.57922e-11
1.64993e-09
-5.18089e-11
1.66202e-09
-4.77943e-11
1.67308e-09
-4.37522e-11
1.68312e-09
-3.96851e-11
1.69212e-09
-3.55955e-11
1.70009e-09
-3.14856e-11
1.70701e-09
-2.73579e-11
1.71288e-09
-2.32147e-11
1.7177e-09
-1.90591e-11
1.72147e-09
-1.48933e-11
1.72418e-09
-1.07192e-11
1.72584e-09
-6.53872e-12
1.72644e-09
-2.35395e-12
1.72597e-09
1.8326e-12
1.72445e-09
6.0188e-12
1.72187e-09
1.02028e-11
1.71823e-09
1.43825e-11
1.71354e-09
1.85555e-11
1.7078e-09
2.27192e-11
1.701e-09
2.68713e-11
1.69316e-09
3.10098e-11
1.68427e-09
3.51327e-11
1.67435e-09
3.92373e-11
1.6634e-09
4.33207e-11
1.65142e-09
4.73799e-11
1.63842e-09
5.14118e-11
1.62441e-09
5.54136e-11
1.6094e-09
5.93825e-11
1.5934e-09
6.33156e-11
1.57641e-09
6.72098e-11
1.55845e-09
7.10613e-11
1.53954e-09
7.48659e-11
1.51967e-09
7.86195e-11
1.49888e-09
8.2318e-11
1.47717e-09
8.59573e-11
1.45455e-09
8.95334e-11
1.43106e-09
9.3042e-11
1.4067e-09
9.6478e-11
1.3815e-09
9.9836e-11
1.35547e-09
1.0311e-10
1.32864e-09
1.06295e-10
1.30104e-09
1.09385e-10
1.2727e-09
1.12373e-10
1.24362e-09
1.15253e-10
1.21386e-09
1.1802e-10
1.18343e-09
1.20667e-10
1.15238e-09
1.23186e-10
1.12073e-09
1.2557e-10
1.08852e-09
1.27811e-10
1.05579e-09
1.29901e-10
1.02259e-09
1.31833e-10
9.88938e-10
1.33597e-10
9.54898e-10
1.35187e-10
9.2051e-10
1.36592e-10
8.85823e-10
1.37805e-10
8.50889e-10
1.38814e-10
8.15761e-10
1.39611e-10
7.80493e-10
1.40185e-10
7.45144e-10
1.40527e-10
7.09775e-10
1.40627e-10
6.74448e-10
1.40475e-10
6.39228e-10
1.40059e-10
6.04182e-10
1.3937e-10
5.69381e-10
1.38397e-10
5.34896e-10
1.37129e-10
5.00802e-10
1.35556e-10
4.67177e-10
1.33668e-10
4.341e-10
1.31454e-10
4.0165e-10
1.28905e-10
3.6991e-10
1.26013e-10
3.38964e-10
1.22768e-10
3.08898e-10
1.19163e-10
2.79798e-10
1.15191e-10
2.5175e-10
1.10848e-10
2.24841e-10
1.06132e-10
1.99158e-10
1.01041e-10
1.74784e-10
9.55772e-11
1.518e-10
8.97483e-11
1.30285e-10
8.35653e-11
1.10312e-10
7.70459e-11
9.19465e-11
7.0215e-11
7.52464e-11
6.31079e-11
6.02574e-11
5.57723e-11
4.70114e-11
4.82717e-11
3.55234e-11
4.06891e-11
2.57881e-11
3.31319e-11
1.77751e-11
2.57388e-11
1.14255e-11
1.86872e-11
6.64733e-12
1.22023e-11
3.31119e-12
6.56895e-12
1.24546e-12
2.1426e-12
2.30994e-13
-6.37638e-13
-1.20863e-12
4.54375e-13
8.83752e-13
2.05118e-12
-5.33555e-13
4.98488e-12
-4.38692e-12
9.42546e-12
-1.01935e-11
1.55042e-11
-1.74621e-11
2.33318e-11
-2.57624e-11
3.30009e-11
-3.47443e-11
4.4554e-11
-4.41399e-11
5.80264e-11
-5.37279e-11
7.3423e-11
-6.33351e-11
9.07249e-11
-7.28335e-11
1.09895e-10
-8.212e-11
1.30889e-10
-9.11122e-11
1.53641e-10
-9.97522e-11
1.78078e-10
-1.07998e-10
2.04126e-10
-1.15816e-10
2.31698e-10
-1.23182e-10
2.60703e-10
-1.30087e-10
2.9105e-10
-1.3652e-10
3.2265e-10
-1.42478e-10
3.55403e-10
-1.47963e-10
3.89217e-10
-1.5298e-10
4.23997e-10
-1.57534e-10
4.5965e-10
-1.61632e-10
4.96082e-10
-1.65284e-10
5.33204e-10
-1.68502e-10
5.70928e-10
-1.71297e-10
6.09169e-10
-1.73679e-10
6.47838e-10
-1.75666e-10
6.86855e-10
-1.77269e-10
7.26144e-10
-1.78498e-10
7.65624e-10
-1.79369e-10
8.05221e-10
-1.79896e-10
8.44864e-10
-1.8009e-10
8.84486e-10
-1.79964e-10
9.24018e-10
-1.79531e-10
9.63394e-10
-1.78804e-10
1.00256e-09
-1.77796e-10
1.04144e-09
-1.76517e-10
1.08e-09
-1.7498e-10
1.11817e-09
-1.73198e-10
1.1559e-09
-1.71181e-10
1.19315e-09
-1.68942e-10
1.22987e-09
-1.6649e-10
1.26601e-09
-1.63837e-10
1.30153e-09
-1.60993e-10
1.33639e-09
-1.57967e-10
1.37055e-09
-1.54768e-10
1.40398e-09
-1.51407e-10
1.43664e-09
-1.47891e-10
1.46849e-09
-1.4423e-10
1.49951e-09
-1.40432e-10
1.52967e-09
-1.36504e-10
1.55894e-09
-1.32453e-10
1.5873e-09
-1.28289e-10
1.61472e-09
-1.24016e-10
1.64117e-09
-1.19643e-10
1.66664e-09
-1.15175e-10
1.69111e-09
-1.1062e-10
1.71455e-09
-1.05984e-10
1.73696e-09
-1.0127e-10
1.75831e-09
-9.64842e-11
1.77859e-09
-9.16322e-11
1.79778e-09
-8.67193e-11
1.81588e-09
-8.17504e-11
1.83287e-09
-7.67289e-11
1.84873e-09
-7.16587e-11
1.86347e-09
-6.65439e-11
1.87706e-09
-6.13894e-11
1.88951e-09
-5.61992e-11
1.9008e-09
-5.09768e-11
1.91093e-09
-4.57246e-11
1.91989e-09
-4.04458e-11
1.92768e-09
-3.5144e-11
1.93428e-09
-2.98224e-11
1.93971e-09
-2.44846e-11
1.94395e-09
-1.91336e-11
1.947e-09
-1.37719e-11
1.94887e-09
-8.40195e-12
1.94954e-09
-3.02645e-12
1.94902e-09
2.35158e-12
1.94731e-09
7.72916e-12
1.94441e-09
1.31038e-11
1.94032e-09
1.84728e-11
1.93504e-09
2.38332e-11
1.92858e-09
2.91816e-11
1.92093e-09
3.4515e-11