/*--------------------------------*- C++ -*----------------------------------*\
  =========                 |
  \\      /  F ield         | OpenFOAM: The Open Source CFD Toolbox
   \\    /   O peration     | Website:  https://openfoam.org
    \\  /    A nd           | Version:  7
     \\/     M anipulation  |
\*---------------------------------------------------------------------------*/
FoamFile
{
    version     2.0;
    format      ascii;
    class       volVectorField;
    location    "0.25";
    object      U;
}
// * * * * * * * * * * * * * * * * * * * * * * * * * * * * * * * * * * * * * //

dimensions      [0 1 -1 0 0 0 0];

internalField   nonuniform List<vector> 
51200
(
(-1.99789e-08 -2.10075e-10 0)
(-5.65021e-08 2.6138e-08 0)
(-1.40909e-07 4.0565e-08 0)
(-2.12909e-07 3.30268e-08 0)
(-2.68765e-07 2.21507e-08 0)
(-2.89534e-07 9.72256e-09 0)
(-2.74434e-07 -2.28169e-09 0)
(-2.22312e-07 -1.47676e-08 0)
(-1.33109e-07 -2.58276e-08 0)
(-6.71931e-09 -3.76317e-08 0)
(1.54212e-07 -4.81683e-08 0)
(3.49505e-07 -5.81783e-08 0)
(5.76513e-07 -6.79068e-08 0)
(8.3442e-07 -7.65671e-08 0)
(1.12089e-06 -8.50409e-08 0)
(1.43395e-06 -9.28329e-08 0)
(1.77237e-06 -9.96868e-08 0)
(2.1336e-06 -1.06282e-07 0)
(2.5163e-06 -1.12367e-07 0)
(2.91894e-06 -1.17693e-07 0)
(3.33936e-06 -1.22708e-07 0)
(3.77562e-06 -1.27143e-07 0)
(4.22686e-06 -1.308e-07 0)
(4.69105e-06 -1.3428e-07 0)
(5.16642e-06 -1.37467e-07 0)
(5.65244e-06 -1.4021e-07 0)
(6.14718e-06 -1.42573e-07 0)
(6.64912e-06 -1.44557e-07 0)
(7.1575e-06 -1.46122e-07 0)
(7.67104e-06 -1.47322e-07 0)
(8.18815e-06 -1.48219e-07 0)
(8.70782e-06 -1.48829e-07 0)
(9.22926e-06 -1.49087e-07 0)
(9.75137e-06 -1.48948e-07 0)
(1.02731e-05 -1.48578e-07 0)
(1.07938e-05 -1.48022e-07 0)
(1.13126e-05 -1.47285e-07 0)
(1.18284e-05 -1.46396e-07 0)
(1.23404e-05 -1.45356e-07 0)
(1.28478e-05 -1.44003e-07 0)
(1.33501e-05 -1.4228e-07 0)
(1.38464e-05 -1.40294e-07 0)
(1.43362e-05 -1.38118e-07 0)
(1.4819e-05 -1.35876e-07 0)
(1.52941e-05 -1.33567e-07 0)
(1.5761e-05 -1.31235e-07 0)
(1.62191e-05 -1.28784e-07 0)
(1.66678e-05 -1.26143e-07 0)
(1.71068e-05 -1.23254e-07 0)
(1.75357e-05 -1.20181e-07 0)
(1.7954e-05 -1.1707e-07 0)
(1.83613e-05 -1.13939e-07 0)
(1.87574e-05 -1.10711e-07 0)
(1.91419e-05 -1.07324e-07 0)
(1.95143e-05 -1.03796e-07 0)
(1.98744e-05 -1.00171e-07 0)
(2.0222e-05 -9.65128e-08 0)
(2.05571e-05 -9.2846e-08 0)
(2.0879e-05 -8.91531e-08 0)
(2.11876e-05 -8.54204e-08 0)
(2.14827e-05 -8.16342e-08 0)
(2.17642e-05 -7.77628e-08 0)
(2.20318e-05 -7.37887e-08 0)
(2.22855e-05 -6.97615e-08 0)
(2.25251e-05 -6.5718e-08 0)
(2.27503e-05 -6.16358e-08 0)
(2.29612e-05 -5.75035e-08 0)
(2.31575e-05 -5.33271e-08 0)
(2.33392e-05 -4.91301e-08 0)
(2.35061e-05 -4.49749e-08 0)
(2.36582e-05 -4.08735e-08 0)
(2.37955e-05 -3.67571e-08 0)
(2.39178e-05 -3.25668e-08 0)
(2.4025e-05 -2.82883e-08 0)
(2.41171e-05 -2.39236e-08 0)
(2.41941e-05 -1.95231e-08 0)
(2.4256e-05 -1.51633e-08 0)
(2.43027e-05 -1.08769e-08 0)
(2.43341e-05 -6.65135e-09 0)
(2.43502e-05 -2.43865e-09 0)
(2.43511e-05 1.82511e-09 0)
(2.43368e-05 6.15258e-09 0)
(2.43072e-05 1.05235e-08 0)
(2.42624e-05 1.48947e-08 0)
(2.42024e-05 1.91972e-08 0)
(2.41272e-05 2.34129e-08 0)
(2.40368e-05 2.76079e-08 0)
(2.39313e-05 3.1861e-08 0)
(2.38107e-05 3.61726e-08 0)
(2.36751e-05 4.04743e-08 0)
(2.35245e-05 4.47186e-08 0)
(2.3359e-05 4.89286e-08 0)
(2.31788e-05 5.31169e-08 0)
(2.29838e-05 5.72424e-08 0)
(2.27743e-05 6.12994e-08 0)
(2.25502e-05 6.53325e-08 0)
(2.23117e-05 6.93734e-08 0)
(2.2059e-05 7.34265e-08 0)
(2.17923e-05 7.74627e-08 0)
(2.15117e-05 8.14377e-08 0)
(2.12173e-05 8.53343e-08 0)
(2.09093e-05 8.91518e-08 0)
(2.05881e-05 9.28832e-08 0)
(2.02538e-05 9.65241e-08 0)
(1.99066e-05 1.00086e-07 0)
(1.95469e-05 1.036e-07 0)
(1.91748e-05 1.07088e-07 0)
(1.87905e-05 1.10532e-07 0)
(1.83946e-05 1.13889e-07 0)
(1.79873e-05 1.17129e-07 0)
(1.75691e-05 1.20231e-07 0)
(1.71403e-05 1.23191e-07 0)
(1.67012e-05 1.26025e-07 0)
(1.62523e-05 1.28736e-07 0)
(1.57941e-05 1.31325e-07 0)
(1.53271e-05 1.33814e-07 0)
(1.48518e-05 1.3619e-07 0)
(1.43688e-05 1.38393e-07 0)
(1.38787e-05 1.40373e-07 0)
(1.3382e-05 1.42124e-07 0)
(1.28794e-05 1.43696e-07 0)
(1.23716e-05 1.45142e-07 0)
(1.18593e-05 1.46435e-07 0)
(1.13434e-05 1.4749e-07 0)
(1.08246e-05 1.48256e-07 0)
(1.03037e-05 1.48737e-07 0)
(9.78166e-06 1.48952e-07 0)
(9.25931e-06 1.48915e-07 0)
(8.73768e-06 1.48623e-07 0)
(8.21784e-06 1.48048e-07 0)
(7.70087e-06 1.4716e-07 0)
(7.18784e-06 1.45949e-07 0)
(6.6799e-06 1.44371e-07 0)
(6.17828e-06 1.42392e-07 0)
(5.68422e-06 1.40035e-07 0)
(5.19906e-06 1.3733e-07 0)
(4.72421e-06 1.34245e-07 0)
(4.26109e-06 1.30717e-07 0)
(3.81116e-06 1.26695e-07 0)
(3.37599e-06 1.22172e-07 0)
(2.95714e-06 1.17172e-07 0)
(2.55624e-06 1.11699e-07 0)
(2.17504e-06 1.05717e-07 0)
(1.81526e-06 9.91872e-08 0)
(1.47864e-06 9.20836e-08 0)
(1.16695e-06 8.43974e-08 0)
(8.82051e-07 7.61028e-08 0)
(6.25742e-07 6.71789e-08 0)
(3.99756e-07 5.7659e-08 0)
(2.058e-07 4.75806e-08 0)
(4.54591e-08 3.69555e-08 0)
(-7.99804e-08 2.58135e-08 0)
(-1.69641e-07 1.42659e-08 0)
(-2.23243e-07 2.56454e-09 0)
(-2.41448e-07 -8.87691e-09 0)
(-2.26405e-07 -1.93603e-08 0)
(-1.8258e-07 -2.76476e-08 0)
(-1.18456e-07 -3.14784e-08 0)
(-5.16058e-08 -2.69197e-08 0)
(-1.02117e-08 -1.02692e-08 0)
(-3.46096e-08 5.18463e-08 0)
(-1.33494e-07 1.15375e-07 0)
(-2.61226e-07 1.45894e-07 0)
(-3.80861e-07 1.15952e-07 0)
(-4.43015e-07 6.14169e-08 0)
(-4.28699e-07 -3.98633e-09 0)
(-3.24002e-07 -7.45632e-08 0)
(-1.25122e-07 -1.4651e-07 0)
(1.71416e-07 -2.18108e-07 0)
(5.64409e-07 -2.88386e-07 0)
(1.05315e-06 -3.56289e-07 0)
(1.6329e-06 -4.21494e-07 0)
(2.30197e-06 -4.83199e-07 0)
(3.05471e-06 -5.41386e-07 0)
(3.88687e-06 -5.96674e-07 0)
(4.79467e-06 -6.47633e-07 0)
(5.77205e-06 -6.95337e-07 0)
(6.81445e-06 -7.3963e-07 0)
(7.91797e-06 -7.79952e-07 0)
(9.07683e-06 -8.17301e-07 0)
(1.02863e-05 -8.51334e-07 0)
(1.15428e-05 -8.81865e-07 0)
(1.2841e-05 -9.08948e-07 0)
(1.41763e-05 -9.33671e-07 0)
(1.55456e-05 -9.55134e-07 0)
(1.69444e-05 -9.739e-07 0)
(1.83684e-05 -9.90364e-07 0)
(1.98143e-05 -1.00405e-06 0)
(2.12787e-05 -1.01504e-06 0)
(2.27576e-05 -1.02383e-06 0)
(2.42482e-05 -1.03062e-06 0)
(2.57472e-05 -1.03516e-06 0)
(2.72516e-05 -1.03758e-06 0)
(2.87581e-05 -1.03805e-06 0)
(3.02639e-05 -1.03659e-06 0)
(3.1767e-05 -1.03319e-06 0)
(3.32646e-05 -1.02815e-06 0)
(3.47542e-05 -1.02174e-06 0)
(3.62336e-05 -1.01389e-06 0)
(3.77007e-05 -1.00444e-06 0)
(3.9153e-05 -9.93473e-07 0)
(4.05886e-05 -9.81201e-07 0)
(4.20055e-05 -9.67526e-07 0)
(4.34024e-05 -9.52648e-07 0)
(4.47773e-05 -9.36661e-07 0)
(4.61287e-05 -9.19816e-07 0)
(4.7455e-05 -9.02059e-07 0)
(4.87548e-05 -8.83321e-07 0)
(5.00267e-05 -8.63555e-07 0)
(5.12694e-05 -8.42914e-07 0)
(5.24817e-05 -8.21561e-07 0)
(5.36627e-05 -7.99493e-07 0)
(5.48112e-05 -7.76723e-07 0)
(5.59262e-05 -7.53325e-07 0)
(5.70065e-05 -7.29308e-07 0)
(5.80514e-05 -7.04626e-07 0)
(5.90602e-05 -6.7932e-07 0)
(6.00322e-05 -6.53538e-07 0)
(6.09664e-05 -6.27363e-07 0)
(6.18623e-05 -6.00851e-07 0)
(6.27194e-05 -5.74008e-07 0)
(6.35369e-05 -5.46777e-07 0)
(6.43143e-05 -5.19098e-07 0)
(6.50511e-05 -4.91039e-07 0)
(6.57469e-05 -4.62694e-07 0)
(6.64013e-05 -4.34114e-07 0)
(6.7014e-05 -4.05321e-07 0)
(6.75845e-05 -3.76315e-07 0)
(6.81124e-05 -3.47046e-07 0)
(6.85975e-05 -3.1755e-07 0)
(6.90397e-05 -2.87937e-07 0)
(6.94387e-05 -2.58273e-07 0)
(6.97941e-05 -2.28538e-07 0)
(7.01059e-05 -1.98667e-07 0)
(7.03738e-05 -1.68583e-07 0)
(7.05977e-05 -1.38297e-07 0)
(7.07775e-05 -1.07921e-07 0)
(7.09131e-05 -7.75618e-08 0)
(7.10045e-05 -4.72635e-08 0)
(7.10515e-05 -1.70172e-08 0)
(7.10543e-05 1.32679e-08 0)
(7.10127e-05 4.36367e-08 0)
(7.09268e-05 7.40474e-08 0)
(7.07965e-05 1.04446e-07 0)
(7.06219e-05 1.34759e-07 0)
(7.04033e-05 1.64935e-07 0)
(7.01406e-05 1.95006e-07 0)
(6.9834e-05 2.25022e-07 0)
(6.94835e-05 2.54981e-07 0)
(6.90894e-05 2.84845e-07 0)
(6.86518e-05 3.14567e-07 0)
(6.8171e-05 3.44155e-07 0)
(6.76472e-05 3.73621e-07 0)
(6.70808e-05 4.02868e-07 0)
(6.6472e-05 4.31801e-07 0)
(6.58211e-05 4.60422e-07 0)
(6.51286e-05 4.88775e-07 0)
(6.43949e-05 5.16912e-07 0)
(6.36204e-05 5.4482e-07 0)
(6.28056e-05 5.72397e-07 0)
(6.19511e-05 5.99564e-07 0)
(6.10572e-05 6.26301e-07 0)
(6.01248e-05 6.52585e-07 0)
(5.91546e-05 6.78382e-07 0)
(5.81473e-05 7.03651e-07 0)
(5.71037e-05 7.28355e-07 0)
(5.60244e-05 7.52517e-07 0)
(5.49103e-05 7.76146e-07 0)
(5.37624e-05 7.99162e-07 0)
(5.25818e-05 8.21471e-07 0)
(5.13695e-05 8.42998e-07 0)
(5.01267e-05 8.63671e-07 0)
(4.88546e-05 8.83466e-07 0)
(4.75545e-05 9.02358e-07 0)
(4.62277e-05 9.20283e-07 0)
(4.48757e-05 9.37234e-07 0)
(4.35e-05 9.53188e-07 0)
(4.21023e-05 9.68026e-07 0)
(4.06842e-05 9.8161e-07 0)
(3.92476e-05 9.93834e-07 0)
(3.77945e-05 1.00467e-06 0)
(3.63266e-05 1.01416e-06 0)
(3.48462e-05 1.02229e-06 0)
(3.33556e-05 1.0289e-06 0)
(3.1857e-05 1.03383e-06 0)
(3.03529e-05 1.03697e-06 0)
(2.88459e-05 1.03825e-06 0)
(2.73386e-05 1.03762e-06 0)
(2.58338e-05 1.03504e-06 0)
(2.43345e-05 1.03042e-06 0)
(2.28439e-05 1.02366e-06 0)
(2.13649e-05 1.01464e-06 0)
(1.99011e-05 1.00324e-06 0)
(1.84558e-05 9.89321e-07 0)
(1.70327e-05 9.72803e-07 0)
(1.56355e-05 9.53649e-07 0)
(1.42681e-05 9.3178e-07 0)
(1.29346e-05 9.07053e-07 0)
(1.16389e-05 8.79299e-07 0)
(1.03856e-05 8.48385e-07 0)
(9.17893e-06 8.14257e-07 0)
(8.0234e-06 7.76888e-07 0)
(6.92367e-06 7.36194e-07 0)
(5.88448e-06 6.9207e-07 0)
(4.91053e-06 6.44454e-07 0)
(4.0065e-06 5.93333e-07 0)
(3.17706e-06 5.38694e-07 0)
(2.42681e-06 4.80559e-07 0)
(1.76008e-06 4.19096e-07 0)
(1.18079e-06 3.54625e-07 0)
(6.92387e-07 2.8758e-07 0)
(2.97418e-07 2.18584e-07 0)
(-2.84082e-09 1.48591e-07 0)
(-2.08988e-07 7.91564e-08 0)
(-3.24264e-07 1.27501e-08 0)
(-3.5565e-07 -4.68307e-08 0)
(-3.15172e-07 -9.3775e-08 0)
(-2.22062e-07 -1.19146e-07 0)
(-1.09414e-07 -1.0973e-07 0)
(-2.67295e-08 -5.15902e-08 0)
(-3.29702e-08 1.19579e-07 0)
(-1.30421e-07 2.51782e-07 0)
(-2.56099e-07 2.73847e-07 0)
(-3.40485e-07 1.96456e-07 0)
(-3.42853e-07 5.89123e-08 0)
(-2.30876e-07 -1.10476e-07 0)
(1.10047e-08 -2.96182e-07 0)
(3.94935e-07 -4.8976e-07 0)
(9.24486e-07 -6.84847e-07 0)
(1.60216e-06 -8.77177e-07 0)
(2.42429e-06 -1.06544e-06 0)
(3.38913e-06 -1.24634e-06 0)
(4.49057e-06 -1.41902e-06 0)
(5.72272e-06 -1.58361e-06 0)
(7.07997e-06 -1.73797e-06 0)
(8.55492e-06 -1.88321e-06 0)
(1.01398e-05 -2.01906e-06 0)
(1.18286e-05 -2.14446e-06 0)
(1.36128e-05 -2.26049e-06 0)
(1.54851e-05 -2.36732e-06 0)
(1.74393e-05 -2.46442e-06 0)
(1.94674e-05 -2.55253e-06 0)
(2.15626e-05 -2.6322e-06 0)
(2.37185e-05 -2.70308e-06 0)
(2.59286e-05 -2.76574e-06 0)
(2.81858e-05 -2.82084e-06 0)
(3.04845e-05 -2.86832e-06 0)
(3.28189e-05 -2.90824e-06 0)
(3.51829e-05 -2.94109e-06 0)
(3.75709e-05 -2.96726e-06 0)
(3.99781e-05 -2.98682e-06 0)
(4.23993e-05 -3.00023e-06 0)
(4.48295e-05 -3.00801e-06 0)
(4.72639e-05 -3.01031e-06 0)
(4.96983e-05 -3.00697e-06 0)
(5.21283e-05 -2.99826e-06 0)
(5.45496e-05 -2.98462e-06 0)
(5.69584e-05 -2.96621e-06 0)
(5.93512e-05 -2.94324e-06 0)
(6.17243e-05 -2.91605e-06 0)
(6.40742e-05 -2.88495e-06 0)
(6.63977e-05 -2.85001e-06 0)
(6.86918e-05 -2.81127e-06 0)
(7.09534e-05 -2.769e-06 0)
(7.31799e-05 -2.72345e-06 0)
(7.53685e-05 -2.6748e-06 0)
(7.75169e-05 -2.62317e-06 0)
(7.96228e-05 -2.56876e-06 0)
(8.16839e-05 -2.51181e-06 0)
(8.36979e-05 -2.45243e-06 0)
(8.56632e-05 -2.39067e-06 0)
(8.75777e-05 -2.32659e-06 0)
(8.94398e-05 -2.26047e-06 0)
(9.12476e-05 -2.19257e-06 0)
(9.29999e-05 -2.12295e-06 0)
(9.46951e-05 -2.05159e-06 0)
(9.63318e-05 -1.97853e-06 0)
(9.79087e-05 -1.90392e-06 0)
(9.94246e-05 -1.8279e-06 0)
(0.000100878 -1.75061e-06 0)
(0.000102269 -1.6722e-06 0)
(0.000103596 -1.59281e-06 0)
(0.000104858 -1.51238e-06 0)
(0.000106054 -1.43095e-06 0)
(0.000107184 -1.34857e-06 0)
(0.000108247 -1.26537e-06 0)
(0.000109241 -1.18151e-06 0)
(0.000110168 -1.09708e-06 0)
(0.000111025 -1.01199e-06 0)
(0.000111813 -9.26204e-07 0)
(0.000112531 -8.39828e-07 0)
(0.000113179 -7.53086e-07 0)
(0.000113756 -6.66096e-07 0)
(0.000114263 -5.78855e-07 0)
(0.000114698 -4.91263e-07 0)
(0.000115062 -4.0329e-07 0)
(0.000115354 -3.1505e-07 0)
(0.000115574 -2.26668e-07 0)
(0.000115723 -1.38207e-07 0)
(0.000115799 -4.97112e-08 0)
(0.000115804 3.88185e-08 0)
(0.000115736 1.27367e-07 0)
(0.000115596 2.1588e-07 0)
(0.000115385 3.04315e-07 0)
(0.000115101 3.92652e-07 0)
(0.000114746 4.8082e-07 0)
(0.000114319 5.6872e-07 0)
(0.000113821 6.56309e-07 0)
(0.000113252 7.43577e-07 0)
(0.000112612 8.30497e-07 0)
(0.000111901 9.17027e-07 0)
(0.00011112 1.00311e-06 0)
(0.00011027 1.08874e-06 0)
(0.00010935 1.17381e-06 0)
(0.000108361 1.25818e-06 0)
(0.000107305 1.34174e-06 0)
(0.00010618 1.42447e-06 0)
(0.000104989 1.50638e-06 0)
(0.000103732 1.58742e-06 0)
(0.00010241 1.66742e-06 0)
(0.000101023 1.74623e-06 0)
(9.95723e-05 1.8238e-06 0)
(9.80595e-05 1.90013e-06 0)
(9.64854e-05 1.97516e-06 0)
(9.48512e-05 2.04873e-06 0)
(9.31581e-05 2.12069e-06 0)
(9.14075e-05 2.1909e-06 0)
(8.96008e-05 2.25928e-06 0)
(8.77395e-05 2.32574e-06 0)
(8.58255e-05 2.39011e-06 0)
(8.38603e-05 2.45227e-06 0)
(8.18459e-05 2.5121e-06 0)
(7.97843e-05 2.56942e-06 0)
(7.76775e-05 2.62409e-06 0)
(7.55279e-05 2.67593e-06 0)
(7.33379e-05 2.72475e-06 0)
(7.111e-05 2.77045e-06 0)
(6.88467e-05 2.81286e-06 0)
(6.65508e-05 2.85176e-06 0)
(6.42253e-05 2.88692e-06 0)
(6.18733e-05 2.91812e-06 0)
(5.94981e-05 2.94521e-06 0)
(5.71032e-05 2.96802e-06 0)
(5.46921e-05 2.98635e-06 0)
(5.22684e-05 2.99993e-06 0)
(4.98363e-05 3.00847e-06 0)
(4.73999e-05 3.01173e-06 0)
(4.49635e-05 3.00949e-06 0)
(4.25316e-05 3.00148e-06 0)
(4.01091e-05 2.98747e-06 0)
(3.77008e-05 2.96719e-06 0)
(3.53117e-05 2.94041e-06 0)
(3.29473e-05 2.90687e-06 0)
(3.06131e-05 2.86623e-06 0)
(2.83149e-05 2.81822e-06 0)
(2.60586e-05 2.76255e-06 0)
(2.38504e-05 2.699e-06 0)
(2.16966e-05 2.62732e-06 0)
(1.96037e-05 2.54718e-06 0)
(1.75784e-05 2.45829e-06 0)
(1.56277e-05 2.36041e-06 0)
(1.37585e-05 2.25339e-06 0)
(1.1978e-05 2.13709e-06 0)
(1.02933e-05 2.01139e-06 0)
(8.71174e-06 1.87617e-06 0)
(7.24022e-06 1.73148e-06 0)
(5.88567e-06 1.57748e-06 0)
(4.6548e-06 1.41448e-06 0)
(3.55379e-06 1.24303e-06 0)
(2.58812e-06 1.06411e-06 0)
(1.76222e-06 8.79171e-07 0)
(1.0791e-06 6.903e-07 0)
(5.39746e-07 5.00463e-07 0)
(1.42436e-07 3.1398e-07 0)
(-1.18348e-07 1.37187e-07 0)
(-2.53183e-07 -2.07013e-08 0)
(-2.78977e-07 -1.46503e-07 0)
(-2.20713e-07 -2.21859e-07 0)
(-1.18376e-07 -2.22193e-07 0)
(-3.11835e-08 -1.18079e-07 0)
(-2.95051e-08 1.95348e-07 0)
(-1.03401e-07 3.60602e-07 0)
(-1.71251e-07 3.56036e-07 0)
(-1.72232e-07 2.02388e-07 0)
(-6.04705e-08 -4.85575e-08 0)
(1.95455e-07 -3.57815e-07 0)
(6.18547e-07 -7.00563e-07 0)
(1.22015e-06 -1.06033e-06 0)
(2.00983e-06 -1.42478e-06 0)
(2.98753e-06 -1.78807e-06 0)
(4.15401e-06 -2.14292e-06 0)
(5.5049e-06 -2.48669e-06 0)
(7.03409e-06 -2.81691e-06 0)
(8.73533e-06 -3.13059e-06 0)
(1.06005e-05 -3.42744e-06 0)
(1.26204e-05 -3.70701e-06 0)
(1.47875e-05 -3.96801e-06 0)
(1.70913e-05 -4.21089e-06 0)
(1.95223e-05 -4.43606e-06 0)
(2.20718e-05 -4.64257e-06 0)
(2.47298e-05 -4.83162e-06 0)
(2.74873e-05 -5.00361e-06 0)
(3.03354e-05 -5.15887e-06 0)
(3.32651e-05 -5.29745e-06 0)
(3.62676e-05 -5.42064e-06 0)
(3.93344e-05 -5.52861e-06 0)
(4.24574e-05 -5.62156e-06 0)
(4.56288e-05 -5.70043e-06 0)
(4.88407e-05 -5.76579e-06 0)
(5.20858e-05 -5.8179e-06 0)
(5.53571e-05 -5.85717e-06 0)
(5.86475e-05 -5.88437e-06 0)
(6.19504e-05 -5.90013e-06 0)
(6.52599e-05 -5.90486e-06 0)
(6.85698e-05 -5.89895e-06 0)
(7.18742e-05 -5.88303e-06 0)
(7.51674e-05 -5.85739e-06 0)
(7.84442e-05 -5.82221e-06 0)
(8.16995e-05 -5.77807e-06 0)
(8.49284e-05 -5.72551e-06 0)
(8.81261e-05 -5.66497e-06 0)
(9.12886e-05 -5.59675e-06 0)
(9.44115e-05 -5.52137e-06 0)
(9.74908e-05 -5.43918e-06 0)
(0.000100523 -5.35059e-06 0)
(0.000103504 -5.25577e-06 0)
(0.00010643 -5.15497e-06 0)
(0.000109299 -5.04865e-06 0)
(0.000112107 -4.93729e-06 0)
(0.000114852 -4.82111e-06 0)
(0.00011753 -4.70024e-06 0)
(0.00012014 -4.5749e-06 0)
(0.000122678 -4.44542e-06 0)
(0.000125143 -4.31213e-06 0)
(0.000127532 -4.17532e-06 0)
(0.000129844 -4.03518e-06 0)
(0.000132076 -3.89187e-06 0)
(0.000134227 -3.74556e-06 0)
(0.000136295 -3.59648e-06 0)
(0.000138278 -3.44485e-06 0)
(0.000140176 -3.29082e-06 0)
(0.000141986 -3.13461e-06 0)
(0.000143708 -2.9764e-06 0)
(0.000145341 -2.81625e-06 0)
(0.000146882 -2.6543e-06 0)
(0.000148333 -2.49074e-06 0)
(0.00014969 -2.32578e-06 0)
(0.000150955 -2.15955e-06 0)
(0.000152125 -1.99208e-06 0)
(0.000153201 -1.8234e-06 0)
(0.000154182 -1.65367e-06 0)
(0.000155066 -1.48308e-06 0)
(0.000155854 -1.31173e-06 0)
(0.000156546 -1.13971e-06 0)
(0.00015714 -9.67073e-07 0)
(0.000157637 -7.93872e-07 0)
(0.000158035 -6.20263e-07 0)
(0.000158336 -4.46378e-07 0)
(0.000158539 -2.72261e-07 0)
(0.000158643 -9.79569e-08 0)
(0.000158649 7.64641e-08 0)
(0.000158557 2.50885e-07 0)
(0.000158367 4.25173e-07 0)
(0.000158078 5.99238e-07 0)
(0.000157691 7.73063e-07 0)
(0.000157206 9.466e-07 0)
(0.000156623 1.11971e-06 0)
(0.000155943 1.29222e-06 0)
(0.000155166 1.46407e-06 0)
(0.000154292 1.63521e-06 0)
(0.000153321 1.80556e-06 0)
(0.000152255 1.97499e-06 0)
(0.000151094 2.14334e-06 0)
(0.000149839 2.3105e-06 0)
(0.00014849 2.47631e-06 0)
(0.000147047 2.64066e-06 0)
(0.000145513 2.80346e-06 0)
(0.000143888 2.96456e-06 0)
(0.000142172 3.12383e-06 0)
(0.000140368 3.28106e-06 0)
(0.000138476 3.436e-06 0)
(0.000136497 3.58845e-06 0)
(0.000134433 3.7383e-06 0)
(0.000132286 3.88547e-06 0)
(0.000130058 4.02978e-06 0)
(0.000127749 4.171e-06 0)
(0.000125361 4.30886e-06 0)
(0.000122898 4.44305e-06 0)
(0.000120361 4.57333e-06 0)
(0.000117751 4.69944e-06 0)
(0.000115073 4.82112e-06 0)
(0.000112328 4.93813e-06 0)
(0.000109519 5.05022e-06 0)
(0.000106648 5.1571e-06 0)
(0.00010372 5.25845e-06 0)
(0.000100737 5.35387e-06 0)
(9.77025e-05 5.443e-06 0)
(9.46205e-05 5.52552e-06 0)
(9.14947e-05 5.6011e-06 0)
(8.83289e-05 5.66942e-06 0)
(8.51275e-05 5.73009e-06 0)
(8.1895e-05 5.78269e-06 0)
(7.86361e-05 5.82676e-06 0)
(7.53557e-05 5.86189e-06 0)
(7.20587e-05 5.88763e-06 0)
(6.87507e-05 5.90354e-06 0)
(6.54373e-05 5.90916e-06 0)
(6.21242e-05 5.90405e-06 0)
(5.88178e-05 5.88772e-06 0)
(5.55243e-05 5.85965e-06 0)
(5.22505e-05 5.81931e-06 0)
(4.90031e-05 5.76621e-06 0)
(4.57894e-05 5.6999e-06 0)
(4.26167e-05 5.61988e-06 0)
(3.94929e-05 5.52561e-06 0)
(3.64259e-05 5.41657e-06 0)
(3.34239e-05 5.29223e-06 0)
(3.04953e-05 5.15212e-06 0)
(2.76487e-05 4.99579e-06 0)
(2.48929e-05 4.82278e-06 0)
(2.2237e-05 4.63267e-06 0)
(1.96902e-05 4.42516e-06 0)
(1.72617e-05 4.20005e-06 0)
(1.49607e-05 3.95722e-06 0)
(1.27965e-05 3.69662e-06 0)
(1.0778e-05 3.41844e-06 0)
(8.91381e-06 3.12319e-06 0)
(7.21222e-06 2.81173e-06 0)
(5.68074e-06 2.48532e-06 0)
(4.32589e-06 2.14593e-06 0)
(3.15273e-06 1.79645e-06 0)
(2.16441e-06 1.44101e-06 0)
(1.36151e-06 1.08539e-06 0)
(7.41321e-07 7.37565e-07 0)
(2.96783e-07 4.0868e-07 0)
(1.52923e-08 1.14159e-07 0)
(-1.22565e-07 -1.24845e-07 0)
(-1.44531e-07 -2.80034e-07 0)
(-9.26312e-08 -3.14768e-07 0)
(-2.72693e-08 -1.81607e-07 0)
(-2.0655e-08 2.41528e-07 0)
(-5.22514e-08 4.10897e-07 0)
(-3.65397e-08 3.46534e-07 0)
(8.24942e-08 8.64413e-08 0)
(3.44788e-07 -3.07869e-07 0)
(7.83046e-07 -7.88177e-07 0)
(1.41819e-06 -1.32131e-06 0)
(2.26762e-06 -1.88169e-06 0)
(3.33732e-06 -2.45431e-06 0)
(4.63255e-06 -3.02495e-06 0)
(6.15181e-06 -3.58577e-06 0)
(7.89106e-06 -4.1308e-06 0)
(9.84573e-06 -4.65497e-06 0)
(1.20072e-05 -5.1553e-06 0)
(1.43662e-05 -5.63022e-06 0)
(1.69142e-05 -6.07738e-06 0)
(1.96397e-05 -6.49635e-06 0)
(2.25321e-05 -6.88737e-06 0)
(2.55806e-05 -7.24948e-06 0)
(2.87738e-05 -7.58312e-06 0)
(3.21003e-05 -7.88903e-06 0)
(3.55492e-05 -8.16753e-06 0)
(3.91099e-05 -8.4191e-06 0)
(4.27712e-05 -8.64474e-06 0)
(4.65223e-05 -8.8452e-06 0)
(5.03536e-05 -9.02087e-06 0)
(5.42546e-05 -9.17265e-06 0)
(5.82154e-05 -9.30164e-06 0)
(6.22271e-05 -9.40861e-06 0)
(6.62805e-05 -9.49418e-06 0)
(7.03667e-05 -9.55939e-06 0)
(7.44771e-05 -9.60505e-06 0)
(7.86035e-05 -9.63175e-06 0)
(8.27384e-05 -9.64029e-06 0)
(8.6874e-05 -9.63157e-06 0)
(9.10032e-05 -9.60641e-06 0)
(9.51191e-05 -9.56537e-06 0)
(9.9215e-05 -9.50906e-06 0)
(0.000103285 -9.43828e-06 0)
(0.000107321 -9.35372e-06 0)
(0.00011132 -9.2559e-06 0)
(0.000115275 -9.14549e-06 0)
(0.000119181 -9.02324e-06 0)
(0.000123033 -8.88985e-06 0)
(0.000126826 -8.74586e-06 0)
(0.000130556 -8.59173e-06 0)
(0.000134218 -8.42795e-06 0)
(0.000137808 -8.25509e-06 0)
(0.000141323 -8.07375e-06 0)
(0.000144759 -7.88433e-06 0)
(0.000148112 -7.68728e-06 0)
(0.00015138 -7.48306e-06 0)
(0.000154559 -7.27208e-06 0)
(0.000157645 -7.05474e-06 0)
(0.000160638 -6.83143e-06 0)
(0.000163534 -6.60252e-06 0)
(0.00016633 -6.36839e-06 0)
(0.000169024 -6.12937e-06 0)
(0.000171615 -5.88581e-06 0)
(0.000174101 -5.63807e-06 0)
(0.000176479 -5.38641e-06 0)
(0.000178748 -5.13108e-06 0)
(0.000180906 -4.87232e-06 0)
(0.000182952 -4.61036e-06 0)
(0.000184885 -4.34549e-06 0)
(0.000186703 -4.07802e-06 0)
(0.000188405 -3.80813e-06 0)
(0.000189991 -3.53595e-06 0)
(0.000191458 -3.26168e-06 0)
(0.000192807 -2.98554e-06 0)
(0.000194036 -2.70782e-06 0)
(0.000195145 -2.42871e-06 0)
(0.000196134 -2.14825e-06 0)
(0.000197001 -1.86653e-06 0)
(0.000197746 -1.58376e-06 0)
(0.000198369 -1.3001e-06 0)
(0.000198869 -1.01579e-06 0)
(0.000199246 -7.31023e-07 0)
(0.000199501 -4.45902e-07 0)
(0.000199632 -1.60483e-07 0)
(0.000199639 1.2514e-07 0)
(0.000199523 4.108e-07 0)
(0.000199284 6.96286e-07 0)
(0.000198922 9.81419e-07 0)
(0.000198437 1.2661e-06 0)
(0.000197829 1.55021e-06 0)
(0.000197098 1.8336e-06 0)
(0.000196245 2.11606e-06 0)
(0.000195271 2.39743e-06 0)
(0.000194175 2.67761e-06 0)
(0.000192958 2.95648e-06 0)
(0.000191622 3.23383e-06 0)
(0.000190166 3.50937e-06 0)
(0.000188592 3.78287e-06 0)
(0.000186901 4.05412e-06 0)
(0.000185093 4.32298e-06 0)
(0.00018317 4.58927e-06 0)
(0.000181133 4.85273e-06 0)
(0.000178983 5.11311e-06 0)
(0.000176721 5.3701e-06 0)
(0.00017435 5.62341e-06 0)
(0.000171871 5.87272e-06 0)
(0.000169285 6.11775e-06 0)
(0.000166595 6.35823e-06 0)
(0.000163803 6.59388e-06 0)
(0.000160911 6.82437e-06 0)
(0.000157921 7.04931e-06 0)
(0.000154835 7.26827e-06 0)
(0.000151658 7.48081e-06 0)
(0.000148391 7.68649e-06 0)
(0.000145037 7.88489e-06 0)
(0.0001416 8.07559e-06 0)
(0.000138084 8.25813e-06 0)
(0.000134491 8.43207e-06 0)
(0.000130826 8.59689e-06 0)
(0.000127093 8.75204e-06 0)
(0.000123297 8.89691e-06 0)
(0.000119441 9.03092e-06 0)
(0.000115531 9.15351e-06 0)
(0.000111571 9.26415e-06 0)
(0.000107567 9.36226e-06 0)
(0.000103525 9.44719e-06 0)
(9.94505e-05 9.51824e-06 0)
(9.53492e-05 9.57466e-06 0)
(9.12278e-05 9.61572e-06 0)
(8.7093e-05 9.64072e-06 0)
(8.29519e-05 9.64894e-06 0)
(7.88116e-05 9.63967e-06 0)
(7.46799e-05 9.61215e-06 0)
(7.05645e-05 9.56562e-06 0)
(6.64738e-05 9.49923e-06 0)
(6.24164e-05 9.41213e-06 0)
(5.84009e-05 9.30356e-06 0)
(5.44366e-05 9.1728e-06 0)
(5.0533e-05 9.01906e-06 0)
(4.66999e-05 8.84155e-06 0)
(4.29472e-05 8.63948e-06 0)
(3.92852e-05 8.41207e-06 0)
(3.57243e-05 8.15865e-06 0)
(3.22754e-05 7.87863e-06 0)
(2.89492e-05 7.57148e-06 0)
(2.57568e-05 7.23677e-06 0)
(2.27093e-05 6.87425e-06 0)
(1.98175e-05 6.48385e-06 0)
(1.70922e-05 6.06574e-06 0)
(1.45441e-05 5.62038e-06 0)
(1.21832e-05 5.14873e-06 0)
(1.00189e-05 4.65238e-06 0)
(8.05965e-06 4.13367e-06 0)
(6.31269e-06 3.59593e-06 0)
(4.78356e-06 3.04381e-06 0)
(3.47552e-06 2.48384e-06 0)
(2.38892e-06 1.92497e-06 0)
(1.5205e-06 1.37927e-06 0)
(8.62485e-07 8.63034e-07 0)
(4.01461e-07 3.98023e-07 0)
(1.17331e-07 1.31775e-08 0)
(-1.81513e-08 -2.53728e-07 0)
(-4.53904e-08 -3.54385e-07 0)
(-1.89019e-08 -2.24733e-07 0)
(-9.26287e-09 2.58491e-07 0)
(1.05137e-08 3.85458e-07 0)
(1.29665e-07 2.21529e-07 0)
(3.91511e-07 -1.7881e-07 0)
(8.30971e-07 -7.48544e-07 0)
(1.47637e-06 -1.43121e-06 0)
(2.35115e-06 -2.18449e-06 0)
(3.46754e-06 -2.97875e-06 0)
(4.83677e-06 -3.79002e-06 0)
(6.46155e-06 -4.60193e-06 0)
(8.34109e-06 -5.4022e-06 0)
(1.04728e-05 -6.18113e-06 0)
(1.285e-05 -6.93233e-06 0)
(1.54642e-05 -7.65179e-06 0)
(1.83066e-05 -8.33512e-06 0)
(2.13661e-05 -8.9804e-06 0)
(2.46308e-05 -9.58654e-06 0)
(2.80889e-05 -1.01523e-05 0)
(3.17283e-05 -1.06773e-05 0)
(3.55357e-05 -1.11624e-05 0)
(3.94986e-05 -1.16075e-05 0)
(4.36048e-05 -1.20132e-05 0)
(4.78413e-05 -1.23804e-05 0)
(5.21955e-05 -1.27103e-05 0)
(5.66557e-05 -1.30034e-05 0)
(6.12098e-05 -1.32607e-05 0)
(6.58459e-05 -1.34837e-05 0)
(7.05528e-05 -1.36734e-05 0)
(7.53198e-05 -1.38307e-05 0)
(8.0136e-05 -1.39569e-05 0)
(8.4991e-05 -1.40536e-05 0)
(8.98751e-05 -1.41216e-05 0)
(9.47786e-05 -1.41619e-05 0)
(9.96923e-05 -1.41757e-05 0)
(0.000104607 -1.41643e-05 0)
(0.000109515 -1.41283e-05 0)
(0.000114407 -1.4069e-05 0)
(0.000119275 -1.39874e-05 0)
(0.000124113 -1.38846e-05 0)
(0.000128913 -1.37614e-05 0)
(0.000133667 -1.36188e-05 0)
(0.000138371 -1.34578e-05 0)
(0.000143016 -1.32794e-05 0)
(0.000147597 -1.30843e-05 0)
(0.000152109 -1.28734e-05 0)
(0.000156546 -1.26476e-05 0)
(0.000160903 -1.24076e-05 0)
(0.000165176 -1.21544e-05 0)
(0.000169359 -1.18884e-05 0)
(0.000173448 -1.16104e-05 0)
(0.000177439 -1.1321e-05 0)
(0.000181329 -1.10211e-05 0)
(0.000185113 -1.07112e-05 0)
(0.000188788 -1.03919e-05 0)
(0.000192352 -1.00637e-05 0)
(0.0001958 -9.72719e-06 0)
(0.00019913 -9.38287e-06 0)
(0.000202339 -9.03125e-06 0)
(0.000205425 -8.67289e-06 0)
(0.000208386 -8.30829e-06 0)
(0.000211219 -7.93789e-06 0)
(0.000213922 -7.562e-06 0)
(0.000216493 -7.18096e-06 0)
(0.000218931 -6.79518e-06 0)
(0.000221234 -6.40512e-06 0)
(0.0002234 -6.0112e-06 0)
(0.000225429 -5.61364e-06 0)
(0.000227318 -5.21261e-06 0)
(0.000229067 -4.80842e-06 0)
(0.000230675 -4.40144e-06 0)
(0.00023214 -3.99208e-06 0)
(0.000233462 -3.58061e-06 0)
(0.00023464 -3.16721e-06 0)
(0.000235674 -2.75195e-06 0)
(0.000236562 -2.33509e-06 0)
(0.000237304 -1.91696e-06 0)
(0.000237901 -1.49782e-06 0)
(0.00023835 -1.07794e-06 0)
(0.000238654 -6.5747e-07 0)
(0.00023881 -2.36586e-07 0)
(0.000238819 1.84491e-07 0)
(0.000238681 6.05569e-07 0)
(0.000238396 1.02645e-06 0)
(0.000237965 1.4469e-06 0)
(0.000237386 1.86669e-06 0)
(0.000236661 2.28556e-06 0)
(0.00023579 2.70331e-06 0)
(0.000234774 3.11971e-06 0)
(0.000233612 3.53451e-06 0)
(0.000232306 3.94748e-06 0)
(0.000230857 4.35842e-06 0)
(0.000229264 4.76706e-06 0)
(0.000227529 5.17304e-06 0)
(0.000225654 5.57601e-06 0)
(0.000223638 5.97565e-06 0)
(0.000221484 6.37172e-06 0)
(0.000219193 6.76396e-06 0)
(0.000216766 7.15199e-06 0)
(0.000214204 7.53534e-06 0)
(0.00021151 7.91362e-06 0)
(0.000208686 8.28642e-06 0)
(0.000205732 8.65338e-06 0)
(0.000202653 9.01406e-06 0)
(0.000199449 9.36797e-06 0)
(0.000196124 9.71465e-06 0)
(0.000192679 1.00536e-05 0)
(0.000189119 1.03842e-05 0)
(0.000185446 1.0706e-05 0)
(0.000181662 1.10182e-05 0)
(0.000177773 1.13203e-05 0)
(0.000173781 1.16116e-05 0)
(0.000169691 1.18916e-05 0)
(0.000165505 1.21595e-05 0)
(0.00016123 1.24146e-05 0)
(0.00015687 1.26562e-05 0)
(0.000152428 1.28835e-05 0)
(0.000147912 1.30956e-05 0)
(0.000143325 1.32917e-05 0)
(0.000138674 1.34711e-05 0)
(0.000133964 1.36328e-05 0)
(0.000129203 1.37759e-05 0)
(0.000124397 1.38997e-05 0)
(0.000119552 1.40029e-05 0)
(0.000114676 1.40847e-05 0)
(0.000109776 1.4144e-05 0)
(0.000104861 1.41796e-05 0)
(9.99385e-05 1.41907e-05 0)
(9.50174e-05 1.41762e-05 0)
(9.01066e-05 1.41349e-05 0)
(8.52154e-05 1.40657e-05 0)
(8.03535e-05 1.39676e-05 0)
(7.55308e-05 1.38393e-05 0)
(7.07578e-05 1.36797e-05 0)
(6.60453e-05 1.34878e-05 0)
(6.14042e-05 1.32624e-05 0)
(5.6846e-05 1.30025e-05 0)
(5.23821e-05 1.27071e-05 0)
(4.80246e-05 1.23751e-05 0)
(4.37855e-05 1.20056e-05 0)
(3.96773e-05 1.15979e-05 0)
(3.57123e-05 1.11512e-05 0)
(3.19031e-05 1.06652e-05 0)
(2.82623e-05 1.01395e-05 0)
(2.48023e-05 9.57432e-06 0)
(2.15352e-05 8.97002e-06 0)
(1.84727e-05 8.32756e-06 0)
(1.56262e-05 7.64849e-06 0)
(1.30061e-05 6.93526e-06 0)
(1.06215e-05 6.19145e-06 0)
(8.48015e-06 5.42204e-06 0)
(6.5881e-06 4.63379e-06 0)
(4.94881e-06 3.83582e-06 0)
(3.56273e-06 3.04041e-06 0)
(2.42658e-06 2.26382e-06 0)
(1.53262e-06 1.52743e-06 0)
(8.67781e-07 8.59144e-07 0)
(4.12629e-07 2.95213e-07 0)
(1.40116e-07 -1.17988e-07 0)
(1.43807e-08 -3.21838e-07 0)
(-8.35653e-09 -2.38984e-07 0)
(2.39681e-09 2.40988e-07 0)
(7.92221e-08 2.72238e-07 0)
(3.13096e-07 -3.39742e-08 0)
(7.32573e-07 -6.13445e-07 0)
(1.36523e-06 -1.39212e-06 0)
(2.2375e-06 -2.30728e-06 0)
(3.36673e-06 -3.31171e-06 0)
(4.76845e-06 -4.36757e-06 0)
(6.44929e-06 -5.44693e-06 0)
(8.41315e-06 -6.52917e-06 0)
(1.06599e-05 -7.59719e-06 0)
(1.31851e-05 -8.63906e-06 0)
(1.59827e-05 -9.6464e-06 0)
(1.9044e-05 -1.0612e-05 0)
(2.23592e-05 -1.15313e-05 0)
(2.59163e-05 -1.24013e-05 0)
(2.9703e-05 -1.32194e-05 0)
(3.37064e-05 -1.39842e-05 0)
(3.79126e-05 -1.46954e-05 0)
(4.23079e-05 -1.53532e-05 0)
(4.68787e-05 -1.59574e-05 0)
(5.16107e-05 -1.65091e-05 0)
(5.64897e-05 -1.70092e-05 0)
(6.15021e-05 -1.74586e-05 0)
(6.66343e-05 -1.78583e-05 0)
(7.1873e-05 -1.82101e-05 0)
(7.72048e-05 -1.85152e-05 0)
(8.26174e-05 -1.87749e-05 0)
(8.80983e-05 -1.89908e-05 0)
(9.36351e-05 -1.91646e-05 0)
(9.92163e-05 -1.92977e-05 0)
(0.000104831 -1.93916e-05 0)
(0.000110468 -1.94479e-05 0)
(0.000116116 -1.94681e-05 0)
(0.000121766 -1.94535e-05 0)
(0.000127408 -1.94055e-05 0)
(0.000133033 -1.93254e-05 0)
(0.00013863 -1.92148e-05 0)
(0.000144193 -1.90749e-05 0)
(0.000149712 -1.89071e-05 0)
(0.00015518 -1.87127e-05 0)
(0.000160589 -1.84929e-05 0)
(0.000165932 -1.82493e-05 0)
(0.000171202 -1.79827e-05 0)
(0.000176392 -1.76943e-05 0)
(0.000181497 -1.73852e-05 0)
(0.00018651 -1.70567e-05 0)
(0.000191426 -1.67099e-05 0)
(0.00019624 -1.63454e-05 0)
(0.000200946 -1.59644e-05 0)
(0.00020554 -1.55677e-05 0)
(0.000210017 -1.51562e-05 0)
(0.000214373 -1.4731e-05 0)
(0.000218604 -1.42927e-05 0)
(0.000222707 -1.38422e-05 0)
(0.000226677 -1.33802e-05 0)
(0.000230511 -1.29073e-05 0)
(0.000234207 -1.24244e-05 0)
(0.000237761 -1.19321e-05 0)
(0.000241171 -1.14311e-05 0)
(0.000244434 -1.0922e-05 0)
(0.000247547 -1.04052e-05 0)
(0.000250509 -9.88134e-06 0)
(0.000253318 -9.35092e-06 0)
(0.000255971 -8.81454e-06 0)
(0.000258467 -8.2727e-06 0)
(0.000260804 -7.72578e-06 0)
(0.000262981 -7.17411e-06 0)
(0.000264996 -6.61808e-06 0)
(0.000266849 -6.05822e-06 0)
(0.000268537 -5.49495e-06 0)