/*--------------------------------*- C++ -*----------------------------------*\
  =========                 |
  \\      /  F ield         | OpenFOAM: The Open Source CFD Toolbox
   \\    /   O peration     | Website:  https://openfoam.org
    \\  /    A nd           | Version:  7
     \\/     M anipulation  |
\*---------------------------------------------------------------------------*/
FoamFile
{
    version     2.0;
    format      ascii;
    class       volScalarField;
    location    "0.325";
    object      p;
}
// * * * * * * * * * * * * * * * * * * * * * * * * * * * * * * * * * * * * * //

dimensions      [0 2 -2 0 0 0 0];

internalField   nonuniform List<scalar> 
12800
(
1.52711e-06
2.94614e-05
-4.24929e-06
-0.000110921
-0.000282757
-0.000509808
-0.000781439
-0.00108726
-0.0014178
-0.00176475
-0.00212101
-0.00248046
-0.00283804
-0.00318953
-0.0035315
-0.00386116
-0.00417634
-0.00447536
-0.00475695
-0.00502026
-0.00526471
-0.00549
-0.00569604
-0.00588291
-0.00605081
-0.00620005
-0.00633102
-0.00644415
-0.0065399
-0.00661875
-0.00668117
-0.00672762
-0.00675854
-0.00677433
-0.00677535
-0.00676192
-0.00673433
-0.00669278
-0.00663744
-0.00656842
-0.00648579
-0.00638956
-0.00627967
-0.00615602
-0.00601847
-0.0058668
-0.00570076
-0.00552003
-0.00532427
-0.00511306
-0.00488593
-0.00464239
-0.00438187
-0.00410378
-0.00380746
-0.00349222
-0.00315732
-0.00280194
-0.00242526
-0.00202638
-0.00160435
-0.00115819
-0.000686851
-0.000189229
0.000335825
0.000889513
0.00147308
0.00208783
0.00273513
0.00341639
0.00413307
0.00488671
0.00567884
0.00651109
0.00738511
0.00830258
0.00926525
0.0102749
0.0113333
0.0124423
0.0136037
0.0148194
0.0160913
0.0174212
0.0188108
0.0202621
0.0217768
0.0233567
0.0250033
0.0267182
0.0285028
0.0303586
0.0322867
0.0342882
0.0363638
0.0385143
0.0407401
0.0430412
0.0454176
0.0478687
0.0503939
0.0529919
0.0556612
0.0583998
0.0612051
0.0640744
0.0670042
0.0699905
0.0730289
0.0761142
0.0792408
0.0824026
0.0855928
0.0888039
0.092028
0.0952567
0.0984809
0.101691
0.104877
0.108029
0.111136
0.114187
0.117171
0.120076
0.122891
0.125606
0.128208
0.130688
0.133035
0.135239
0.137292
0.139184
0.14091
0.142462
0.143836
0.145027
0.146034
0.146855
0.147491
0.147945
0.148219
0.148319
0.148252
0.148028
0.147656
0.14715
0.146522
0.14579
0.14497
0.144083
0.14315
0.142196
0.141247
0.140333
0.139488
0.138748
0.138152
0.137741
0.137555
0.137582
-2.41374e-05
2.90999e-06
-3.23909e-05
-0.000130277
-0.000281799
-0.000480123
-0.000717672
-0.000986388
-0.00127857
-0.00158723
-0.00190613
-0.00222983
-0.00255366
-0.00287366
-0.00318654
-0.00348957
-0.00378056
-0.00405777
-0.00431986
-0.00456583
-0.00479497
-0.00500684
-0.00520118
-0.00537792
-0.0055371
-0.00567888
-0.00580349
-0.00591123
-0.00600241
-0.0060774
-0.00613654
-0.0061802
-0.00620871
-0.00622237
-0.00622147
-0.00620626
-0.00617694
-0.00613366
-0.00607654
-0.00600566
-0.00592102
-0.0058226
-0.00571033
-0.00558408
-0.00544367
-0.00528888
-0.00511944
-0.00493502
-0.00473526
-0.00451974
-0.004288
-0.00403953
-0.00377379
-0.00349016
-0.00318802
-0.00286668
-0.00252538
-0.00216336
-0.00177978
-0.00137378
-0.000944429
-0.000490766
-1.17638e-05
0.000493646
0.00102658
0.0015882
0.00217972
0.00280239
0.00345753
0.00414651
0.00487075
0.00563169
0.00643084
0.00726973
0.00814994
0.00907309
0.0100408
0.0110549
0.0121169
0.0132287
0.0143919
0.0156083
0.0168797
0.0182077
0.0195942
0.0210407
0.022549
0.0241206
0.0257571
0.0274598
0.02923
0.0310691
0.032978
0.0349576
0.0370087
0.0391317
0.041327
0.0435947
0.0459343
0.0483455
0.0508272
0.0533784
0.0559972
0.0586818
0.0614297
0.0642378
0.067103
0.0700211
0.0729879
0.0759984
0.0790471
0.082128
0.0852345
0.0883595
0.0914954
0.094634
0.0977667
0.100884
0.103978
0.107036
0.110051
0.11301
0.115904
0.118722
0.121453
0.124087
0.126613
0.129022
0.131303
0.133449
0.13545
0.137299
0.138989
0.140515
0.141871
0.143056
0.144067
0.144902
0.145564
0.146054
0.146375
0.146535
0.146538
0.146395
0.146115
0.14571
0.145193
0.14458
0.143888
0.143135
0.142341
0.141529
0.140722
0.139948
0.139234
0.13861
0.138106
0.137751
0.137581
0.137608
1.02617e-05
3.84717e-05
2.84779e-06
-9.03752e-05
-0.000230397
-0.000411432
-0.000627362
-0.000871502
-0.00113738
-0.00141897
-0.0017108
-0.00200802
-0.00230637
-0.00260219
-0.00289237
-0.0031743
-0.00344585
-0.0037053
-0.00395126
-0.00418271
-0.00439886
-0.00459917
-0.0047833
-0.00495106
-0.00510237
-0.00523732
-0.00535602
-0.00545864
-0.00554542
-0.00561662
-0.00567251
-0.00571334
-0.00573938
-0.00575086
-0.005748
-0.00573098
-0.00569996
-0.00565504
-0.00559628
-0.00552372
-0.00543734
-0.00533709
-0.00522286
-0.00509449
-0.0049518
-0.00479454
-0.00462244
-0.00443515
-0.00423231
-0.00401349
-0.00377822
-0.003526
-0.00325628
-0.00296847
-0.00266194
-0.00233599
-0.0019899
-0.00162289
-0.00123417
-0.000822886
-0.000388125
7.10607e-05
0.000555669
0.00106674
0.00160537
0.00217268
0.00276984
0.00339808
0.00405867
0.00475294
0.00548225
0.00624802
0.00705167
0.0078947
0.00877862
0.00970499
0.0106754
0.0116914
0.0127548
0.013867
0.0150299
0.016245
0.0175141
0.0188387
0.0202204
0.021661
0.0231619
0.0247245
0.0263504
0.0280408
0.029797
0.0316201
0.033511
0.0354705
0.0374993
0.0395977
0.0417661
0.0440043
0.0463121
0.0486887
0.0511334
0.0536448
0.0562212
0.0588607
0.0615608
0.0643186
0.0671307
0.0699933
0.0729021
0.0758523
0.0788385
0.0818548
0.084895
0.087952
0.0910186
0.0940868
0.0971483
0.100194
0.103216
0.106203
0.109147
0.112037
0.114863
0.117615
0.120283
0.122856
0.125326
0.127682
0.129915
0.132018
0.133981
0.135798
0.137463
0.138971
0.140317
0.141498
0.142512
0.14336
0.144042
0.14456
0.144919
0.145123
0.145179
0.145097
0.144885
0.144555
0.144121
0.143596
0.142996
0.14234
0.141645
0.140932
0.140223
0.139541
0.138911
0.138358
0.137906
0.137578
0.13741
0.137424
0.000117765
0.000136897
9.56169e-05
1.63034e-06
-0.000134278
-0.000306637
-0.000510025
-0.000738676
-0.00098696
-0.00124962
-0.00152183
-0.00179925
-0.00207806
-0.0023549
-0.0026269
-0.00289163
-0.00314705
-0.00339151
-0.00362366
-0.00384246
-0.00404712
-0.00423706
-0.00441188
-0.00457132
-0.00471526
-0.00484369
-0.00495665
-0.00505424
-0.00513662
-0.00520398
-0.00525651
-0.00529442
-0.00531787
-0.00532707
-0.00532216
-0.0053033
-0.00527056
-0.00522401
-0.00516368
-0.00508956
-0.00500163
-0.00489977
-0.00478387
-0.00465375
-0.0045092
-0.00434996
-0.00417574
-0.0039862
-0.00378095
-0.00355956
-0.00332157
-0.00306648
-0.00279372
-0.00250273
-0.00219285
-0.00186343
-0.00151374
-0.00114302
-0.000750483
-0.000335294
0.000103435
0.000566636
0.00105528
0.00157039
0.00211303
0.00268428
0.00328529
0.00391725
0.0045814
0.00527903
0.00601145
0.00678003
0.00758616
0.00843127
0.00931682
0.0102443
0.0112153
0.0122313
0.0132939
0.0144047
0.0155652
0.0167772
0.0180421
0.0193615
0.0207369
0.02217
0.0236621
0.0252147
0.026829
0.0285065
0.0302481
0.0320549
0.0339279
0.0358678
0.037875
0.0399501
0.0420931
0.044304
0.0465824
0.0489277
0.0513389
0.0538147
0.0563536
0.0589535
0.0616119
0.064326
0.0670926
0.0699079
0.0727677
0.0756672
0.0786013
0.0815642
0.0845498
0.0875514
0.0905617
0.0935731
0.0965777
0.0995667
0.102532
0.105463
0.108351
0.111187
0.113961
0.116663
0.119282
0.121811
0.124238
0.126555
0.128753
0.130824
0.13276
0.134555
0.136203
0.137698
0.139037
0.140217
0.141237
0.142095
0.142794
0.143335
0.143722
0.143962
0.144059
0.144023
0.143863
0.14359
0.143216
0.142756
0.142224
0.141636
0.141011
0.140366
0.139722
0.139099
0.138519
0.138003
0.137572
0.137247
0.137056
0.137018
0.000291946
0.000290015
0.00023577
0.000135579
-1.62613e-06
-0.000170772
-0.000367032
-0.000585379
-0.000820944
-0.00106916
-0.00132581
-0.00158704
-0.00184945
-0.00211002
-0.00236613
-0.00261557
-0.00285643
-0.00308716
-0.0033065
-0.00351342
-0.00370716
-0.00388712
-0.00405287
-0.00420412
-0.00434072
-0.00446259
-0.0045697
-0.00466212
-0.00473993
-0.00480327
-0.00485227
-0.00488705
-0.00490776
-0.00491452
-0.00490745
-0.00488663
-0.0048521
-0.00480389
-0.004742
-0.00466637
-0.00457695
-0.00447361
-0.00435619
-0.00422451
-0.00407833
-0.00391739
-0.00374137
-0.00354992
-0.00334266
-0.00311913
-0.00287889
-0.00262142
-0.00234618
-0.00205259
-0.00174001
-0.00140778
-0.0010552
-0.000681521
-0.000285969
0.000132279
0.00057409
0.00104038
0.00153209
0.00205021
0.00259578
0.00316986
0.00377355
0.00440803
0.00507448
0.00577416
0.00650834
0.00727834
0.0080855
0.0089312
0.00981687
0.0107439
0.0117139
0.0127282
0.0137884
0.014896
0.0160526
0.0172596
0.0185187
0.0198312
0.0211986
0.0226225
0.0241043
0.0256452
0.0272465
0.0289095
0.0306352
0.0324246
0.0342786
0.0361977
0.0381826
0.0402337
0.0423509
0.0445342
0.0467833
0.0490974
0.0514758
0.053917
0.0564194
0.0589812
0.0615999
0.0642728
0.0669965
0.0697676
0.0725819
0.0754348
0.0783212
0.0812355
0.0841718
0.0871236
0.0900838
0.0930451
0.0959995
0.0989389
0.101855
0.104738
0.107579
0.110369
0.113099
0.115759
0.118339
0.120829
0.123222
0.125507
0.127677
0.129724
0.131639
0.133418
0.135053
0.13654
0.137876
0.139057
0.140082
0.140952
0.141666
0.142228
0.142641
0.14291
0.143042
0.143046
0.142929
0.142703
0.142379
0.141971
0.141492
0.140959
0.140387
0.139793
0.139195
0.138612
0.138061
0.137562
0.137133
0.136791
0.136554
0.136432
0.000524095
0.000491845
0.000418118
0.000306576
0.000163077
-7.83095e-06
-0.000201799
-0.000414494
-0.00064175
-0.000879626
-0.00112445
-0.00137287
-0.00162189
-0.00186881
-0.00211132
-0.0023474
-0.00257533
-0.0027937
-0.00300131
-0.00319725
-0.00338076
-0.00355125
-0.00370831
-0.00385165
-0.00398107
-0.00409645
-0.00419774
-0.00428496
-0.00435815
-0.00441739
-0.00446276
-0.00449433
-0.0045122
-0.00451646
-0.00450717
-0.00448435
-0.00444802
-0.00439817
-0.00433476
-0.00425771
-0.00416692
-0.00406224
-0.0039435
-0.00381048
-0.00366294
-0.00350058
-0.0033231
-0.00313012
-0.00292125
-0.00269605
-0.00245404
-0.00219473
-0.00191758
-0.001622
-0.00130736
-0.000973022
-0.000618282
-0.000242419
0.00015533
0.000575773
0.00101976
0.00148818
0.00198195
0.00250205
0.00304946
0.00362522
0.00423041
0.00486616
0.00553364
0.00623404
0.0069686
0.0077386
0.00854533
0.00939012
0.0102744
0.0111994
0.0121667
0.0131777
0.0142339
0.0153367
0.0164875
0.0176879
0.0189394
0.0202433
0.0216011
0.0230142
0.0244839
0.0260116
0.0275984
0.0292455
0.030954
0.0327247
0.0345585
0.036456
0.0384178
0.0404441
0.0425351
0.0446907
0.0469104
0.0491938
0.0515397
0.0539472
0.0564144
0.0589396
0.0615205
0.0641543
0.0668379
0.0695679
0.0723401
0.0751502
0.0779932
0.0808638
0.083756
0.0866635
0.0895796
0.092497
0.0954081
0.0983048
0.101179
0.104021
0.106823
0.109576
0.11227
0.114895
0.117444
0.119905
0.122271
0.124532
0.126681
0.12871
0.130611
0.132378
0.134006
0.135489
0.136824
0.138009
0.139042
0.139923
0.140652
0.141233
0.141668
0.141964
0.142126
0.142161
0.14208
0.141891
0.141607
0.14124
0.140803
0.14031
0.139776
0.139218
0.13865
0.138089
0.137551
0.137052
0.136608
0.136233
0.135933
0.135708
0.000804684
0.000735521
0.000637063
0.000509645
0.000355346
0.000178228
-1.78068e-05
-0.000229095
-0.000452094
-0.000683428
-0.000919951
-0.00115878
-0.00139729
-0.00163315
-0.00186431
-0.00208901
-0.0023057
-0.00251313
-0.00271024
-0.00289619
-0.00307026
-0.00323194
-0.00338083
-0.00351663
-0.00363915
-0.00374825
-0.00384386
-0.00392597
-0.00399458
-0.00404973
-0.00409146
-0.00411981
-0.00413485
-0.0041366
-0.00412508
-0.0041003
-0.00406222
-0.0040108
-0.00394596
-0.00386761
-0.00377561
-0.00366978
-0.00354993
-0.00341583
-0.00326721
-0.00310378
-0.00292519
-0.00273109
-0.00252104
-0.00229463
-0.00205138
-0.00179079
-0.00151231
-0.00121538
-0.000899362
-0.000563626
-0.000207492
0.00016975
0.00056885
0.000990596
0.00143582
0.00190539
0.0024002
0.00292118
0.0034693
0.00404557
0.00465105
0.00528681
0.00595399
0.00665375
0.00738728
0.00815582
0.00896062
0.00980297
0.0106842
0.0116056
0.0125687
0.0135747
0.0146251
0.0157213
0.0168647
0.0180568
0.0192989
0.0205925
0.0219389
0.0233396
0.0247957
0.0263085
0.0278793
0.0295091
0.0311989
0.0329497
0.0347622
0.0366372
0.038575
0.040576
0.0426403
0.0447679
0.0469584
0.0492112
0.0515254
0.0538999
0.0563331
0.0588233
0.0613682
0.0639652
0.0666113
0.0693031
0.0720367
0.0748078
0.0776117
0.0804431
0.0832963
0.0861652
0.089043
0.0919229
0.0947972
0.0976582
0.100498
0.103307
0.106078
0.1088
0.111466
0.114066
0.11659
0.11903
0.121377
0.123622
0.125757
0.127775
0.129668
0.13143
0.133055
0.134539
0.135877
0.137068
0.138111
0.139003
0.139748
0.140346
0.140802
0.14112
0.141306
0.141369
0.141316
0.141157
0.140903
0.140566
0.140158
0.139693
0.139185
0.138647
0.138095
0.137541
0.137002
0.136489
0.136016
0.135596
0.135221
0.13488
0.0011242
0.00101358
0.000886338
0.000739243
0.000570357
0.000383247
0.0001814
-3.21263e-05
-0.000254371
-0.000482489
-0.00071382
-0.000945906
-0.00117652
-0.00140366
-0.00162557
-0.00184072
-0.00204778
-0.00224567
-0.00243346
-0.0026104
-0.00277588
-0.00292943
-0.0030707
-0.00319942
-0.00331539
-0.00341848
-0.00350862
-0.00358578
-0.00364993
-0.00370108
-0.00373924
-0.00376444
-0.00377668
-0.00377598
-0.0037623
-0.00373562
-0.00369588
-0.003643
-0.00357687
-0.00349737
-0.00340434
-0.00329757
-0.00317685
-0.00304194
-0.00289255
-0.00272838
-0.00254906
-0.00235422
-0.00214345
-0.00191631
-0.00167233
-0.001411
-0.00113179
-0.000834125
-0.000517397
-0.000180975
0.000175803
0.000553632
0.000953245
0.00137542
0.00182095
0.0022907
0.00278552
0.00330633
0.00385405
0.00442968
0.00503422
0.00566874
0.00633432
0.00703208
0.00776319
0.00852883
0.00933021
0.0101686
0.0110452
0.0119614
0.0129185
0.0139179
0.0149608
0.0160487
0.017183
0.018365
0.019596
0.0208776
0.0222109
0.0235973
0.0250381
0.0265345
0.0280876
0.0296986
0.0313684
0.0330979
0.034888
0.0367392
0.0386521
0.040627
0.0426641
0.0447633
0.0469244
0.0491467
0.0514294
0.0537716
0.0561717
0.058628
0.0611384
0.0637005
0.0663113
0.0689676
0.0716656
0.0744011
0.0771697
0.079966
0.0827848
0.0856198
0.0884647
0.0913126
0.0941562
0.0969879
0.0997994
0.102583
0.105329
0.108029
0.110674
0.113255
0.115763
0.118189
0.120525
0.122761
0.124889
0.126902
0.128793
0.130555
0.132183
0.133672
0.135018
0.136218
0.137272
0.138178
0.138938
0.139553
0.140028
0.140366
0.140573
0.140658
0.140627
0.140491
0.14026
0.139944
0.139557
0.139109
0.138614
0.138086
0.137536
0.136978
0.136424
0.135885
0.135373
0.134899
0.134443
0.133983
0.00147381
0.00131867
0.0011596
0.000989819
0.000803223
0.000602948
0.000392138
0.000173279
-5.12172e-05
-0.000278999
-0.000507851
-0.000735725
-0.000960767
-0.00118131
-0.00139588
-0.00160318
-0.00180212
-0.00199179
-0.00217141
-0.00234033
-0.00249806
-0.0026442
-0.00277846
-0.00290058
-0.00301041
-0.00310783
-0.00319278
-0.00326521
-0.00332508
-0.00337238
-0.00340711
-0.00342927
-0.00343884
-0.00343579
-0.00342006
-0.00339161
-0.00335033
-0.00329614
-0.00322888
-0.00314842
-0.00305456
-0.00294709
-0.00282576
-0.00269032
-0.00254048
-0.0023759
-0.00219623
-0.00200106
-0.00179
-0.0015626
-0.00131839
-0.00105687
-0.000777507
-0.000479726
-0.000162938
0.000173475
0.00053016
0.000907799
0.00130711
0.00172884
0.00217378
0.00264275
0.00313659
0.00365617
0.0042024
0.00477624
0.00537866
0.00601069
0.00667337
0.00736781
0.0080951
0.0088564
0.00965288
0.0104857
0.0113562
0.0122656
0.0132151
0.0142061
0.0152399
0.0163178
0.0174411
0.0186112
0.0198294
0.0210971
0.0224155
0.023786
0.0252097
0.0266879
0.0282218
0.0298124
0.0314606
0.0331675
0.0349337
0.03676
0.038647
0.0405949
0.042604
0.0446742
0.0468054
0.048997
0.0512484
0.0535586
0.0559261
0.0583495
0.0608267
0.0633553
0.0659326
0.0685556
0.0712205
0.0739233
0.0766597
0.0794247
0.082213
0.0850186
0.0878353
0.0906564
0.0934747
0.0962826
0.0990723
0.101835
0.104564
0.107248
0.109879
0.112449
0.114948
0.117367
0.119698
0.121931
0.124059
0.126075
0.127969
0.129738
0.131373
0.132872
0.134229
0.135443
0.136511
0.137433
0.138209
0.138842
0.139334
0.13969
0.139917
0.14002
0.140007
0.139888
0.139673
0.139372
0.138995
0.138556
0.138066
0.137537
0.13698
0.136407
0.135829
0.135255
0.134697
0.134162
0.133621
0.133041
0.00184546
0.0016438
0.00145072
0.0012559
0.00104908
0.000833033
0.000610625
0.000383806
0.000154483
-7.54412e-05
-0.000304178
-0.000530073
-0.000751621
-0.000967472
-0.00117643
-0.00137748
-0.00156972
-0.00175243
-0.00192497
-0.00208685
-0.00223768
-0.00237715
-0.00250501
-0.00262108
-0.00272523
-0.00281738
-0.00289747
-0.00296545
-0.00302128
-0.00306495
-0.00309645
-0.00311575
-0.0031228
-0.00311756
-0.00309994
-0.00306987
-0.00302723
-0.0029719
-0.00290372
-0.0028225
-0.00272804
-0.00262011
-0.00249845
-0.00236279
-0.00221281
-0.00204817
-0.00186851
-0.00167343
-0.00146251
-0.00123532
-0.000991388
-0.000730207
-0.000451249
-0.000153957
0.000162248
0.000497971
0.000853843
0.00123053
0.00162873
0.00204919
0.00249265
0.0029599
0.00345177
0.00396909
0.00451275
0.00508367
0.00568279
0.0063111
0.00696962
0.0076594
0.0083815
0.00913704
0.00992714
0.010753
0.0116157
0.0125166
0.0134569
0.0144379
0.0154608
0.0165269
0.0176375
0.0187939
0.0199975
0.0212495
0.0225512
0.0239039
0.0253088
0.0267672
0.02828
0.0298485
0.0314736
0.0331562
0.0348972
0.0366973
0.0385571
0.0404769
0.042457
0.0444975
0.0465983
0.0487589
0.0509788
0.053257
0.0555923
0.0579833
0.0604281
0.0629244
0.0654698
0.0680611
0.070695
0.0733677
0.0760748
0.0788116
0.0815729
0.0843529
0.0871456
0.0899444
0.0927422
0.0955317
0.098305
0.101054
0.10377
0.106445
0.109069
0.111634
0.11413
0.116549
0.118882
0.121119
0.123254
0.125277
0.127182
0.128962
0.130612
0.132125
0.133498
0.134728
0.135814
0.136754
0.137548
0.138199
0.13871
0.139084
0.139327
0.139446
0.139449
0.139343
0.139138
0.138845
0.138474
0.138036
0.137542
0.137004
0.136432
0.135836
0.135227
0.134611
0.134
0.133401
0.132774
0.132077
0.00223185
0.00198244
0.00175381
0.00153216
0.00130312
0.00106919
0.000833006
0.000596027
0.000359701
0.000125508
-0.000105164
-0.000331032
-0.00055092
-0.00076379
-0.000968736
-0.00116498
-0.00135184
-0.00152876
-0.0016953
-0.00185109
-0.00199587
-0.0021294
-0.00225151
-0.00236209
-0.00246107
-0.00254838
-0.00262399
-0.00268785
-0.00273995
-0.00278026
-0.00280876
-0.00282542
-0.00283017
-0.00282293
-0.00280363
-0.00277214
-0.00272835
-0.00267209
-0.0026032
-0.00252146
-0.00242664
-0.00231852
-0.00219681
-0.00206122
-0.00191143
-0.00174708
-0.00156781
-0.00137321
-0.00116287
-0.000936347
-0.000693173
-0.00043285
-0.000154853
0.000141363
0.000456362
0.000790731
0.00114509
0.00152009
0.0019164
0.00233475
0.00277586
0.00324048
0.00372942
0.00424347
0.00478351
0.00535039
0.00594506
0.00656845
0.00722154
0.00790535
0.00862089
0.00936925
0.0101515
0.0109688
0.0118223
0.0127131
0.0136426
0.0146118
0.015622
0.0166746
0.0177707
0.0189117
0.0200988
0.0213333
0.0226165
0.0239496
0.0253338
0.0267704
0.0282605
0.0298051
0.0314054
0.0330622
0.0347765
0.0365489
0.0383801
0.0402706
0.0422207
0.0442305
0.0463001
0.0484291
0.050617
0.0528631
0.0551663
0.0575252
0.0599381
0.062403
0.0649175
0.0674787
0.0700833
0.0727278
0.075408
0.0781192
0.0808565
0.0836144
0.0863868
0.0891674
0.0919491
0.0947248
0.0974867
0.100227
0.102936
0.105607
0.10823
0.110796
0.113296
0.115721
0.118062
0.120311
0.122458
0.124496
0.126417
0.128215
0.129883
0.131416
0.13281
0.134061
0.135168
0.136129
0.136944
0.137615
0.138145
0.138537
0.138797
0.13893
0.138945
0.138849
0.138651
0.138361
0.13799
0.137547
0.137044
0.13649
0.135896
0.135271
0.134624
0.133962
0.133295
0.13263
0.131917
0.131108
0.00262637
0.00232851
0.00206325
0.00181343
0.00156063
0.00130714
0.0010554
0.000806444
0.000561287
0.000321014
8.66446e-05
-0.000140887
-0.000360731
-0.000572152
-0.000774514
-0.000967267
-0.00114995
-0.00132221
-0.00148377
-0.0016344
-0.00177393
-0.00190225
-0.00201928
-0.00212497
-0.0022193
-0.00230224
-0.00237378
-0.00243391
-0.00248261
-0.00251988
-0.00254568
-0.00255995
-0.00256264
-0.00255366
-0.0025329
-0.00250023
-0.00245551
-0.00239857
-0.0023292
-0.00224718
-0.00215228
-0.00204423
-0.00192276
-0.00178755
-0.00163827
-0.00147456
-0.00129604
-0.00110232
-0.00089297
-0.00066756
-0.000425618
-0.000166652
0.000109852
0.000404424
0.000717612
0.00104999
0.00140216
0.00177475
0.00216842
0.00258387
0.00302178
0.00348289
0.00396796
0.00447776
0.00501313
0.00557492
0.006164
0.00678128
0.00742771
0.00810425
0.0088119
0.00955169
0.0103247
0.0111319
0.0119746
0.0128538
0.0137707
0.0147265
0.0157224
0.0167597
0.0178395
0.0189632
0.020132
0.0213471
0.0226098
0.0239215
0.0252832
0.0266962
0.0281617
0.0296807
0.0312544
0.0328837
0.0345695
0.0363127
0.0381139
0.0399737
0.0418925
0.0438706
0.0459081
0.0480047
0.05016
0.0523736
0.0546444
0.0569712
0.0593525
0.0617865
0.0642708
0.0668029
0.0693796
0.0719975
0.0746527
0.0773407
0.0800567
0.0827952
0.0855506
0.0883165
0.091086
0.0938521
0.0966071
0.099343
0.102051
0.104724
0.107351
0.109924
0.112433
0.114871
0.117226
0.119492
0.121658
0.123716
0.12566
0.127481
0.129174
0.130732
0.132151
0.133428
0.13456
0.135546
0.136385
0.137079
0.137629
0.13804
0.138317
0.138464
0.13849
0.138402
0.138208
0.137918
0.137543
0.137091
0.136573
0.135999
0.135378
0.134719
0.13403
0.133318
0.132592
0.13186
0.131064
0.130146
0.00302294
0.00267628
0.0023737
0.00209474
0.00181702
0.00154263
0.00127392
0.0010115
0.000755994
0.000508118
0.000268551
3.78924e-05
-0.000183326
-0.000394652
-0.000595704
-0.000786164
-0.000965797
-0.00113444
-0.00129196
-0.00143829
-0.00157339
-0.00169723
-0.00180985
-0.00191125
-0.00200147
-0.00208053
-0.00214846
-0.00220526
-0.00225094
-0.00228551
-0.00230892
-0.00232112
-0.00232203
-0.00231157
-0.00228961
-0.00225602
-0.00221063
-0.00215324
-0.00208365
-0.00200162
-0.00190689
-0.00179921
-0.00167826
-0.00154374
-0.00139529
-0.00123255
-0.00105514
-0.000862667
-0.000654713
-0.000430837
-0.000190576
6.65553e-05
0.000341057
0.000633442
0.000944245
0.00127402
0.00162336
0.00199286
0.00238317
0.00279494
0.00322884
0.00368558
0.00416588
0.00467049
0.00520021
0.00575584
0.00633823
0.00694825
0.00758681
0.00825483
0.00895327
0.00968311
0.0104454
0.0112411
0.0120714
0.0129374
0.0138402
0.0147809
0.0157608
0.016781
0.0178428
0.0189473
0.0200959
0.0212898
0.0225303
0.0238185
0.0251558
0.0265434
0.0279824
0.0294739
0.0310192
0.0326192
0.0342749
0.0359872
0.0377568
0.0395845
0.0414707
0.0434157
0.0454199
0.0474831
0.0496051
0.0517854
0.0540234
0.0563179
0.0586676
0.0610708
0.0635254
0.0660291
0.0685788
0.0711714
0.0738031
0.0764697
0.0791664
0.0818882
0.0846292
0.0873835
0.0901443
0.0929045
0.0956566
0.0983927
0.101104
0.103783
0.106419
0.109005
0.11153
0.113985
0.116361
0.118649
0.12084
0.122926
0.124898
0.126748
0.128471
0.130061
0.131511
0.132819
0.133981
0.134995
0.135861
0.136581
0.137154
0.137586
0.13788
0.138042
0.138079
0.137997
0.137806
0.137514
0.137131
0.136667
0.136131
0.135532
0.13488
0.134184
0.133451
0.132686
0.1319
0.131101
0.130223
0.129203
0.00341595
0.00302041
0.0026801
0.00237132
0.00206779
0.00177149
0.00148468
0.0012076
0.000940497
0.000683753
0.000437718
0.000202672
-2.11514e-05
-0.000233566
-0.000434437
-0.000623686
-0.000801292
-0.000967271
-0.00112166
-0.00126452
-0.00139595
-0.00151603
-0.00162489
-0.00172261
-0.00180928
-0.00188497
-0.00194974
-0.00200366
-0.00204673
-0.00207897
-0.00210033
-0.00211077
-0.00211022
-0.00209857
-0.0020757
-0.00204146
-0.00199565
-0.00193809
-0.00186854
-0.00178675
-0.00169248
-0.00158543
-0.00146529
-0.00133174
-0.00118442
-0.00102298
-0.000847018
-0.000656156
-0.000449972
-0.000228029
1.01307e-05
0.000264979
0.000536999
0.000826688
0.00113456
0.00146116
0.00180706
0.00217283
0.00255909
0.00296646
0.00339558
0.00384713
0.0043218
0.00482031
0.0053434
0.00589187
0.00646651
0.00706815
0.00769767
0.00835595
0.00904389
0.00976247
0.0105126
0.0112954
0.0121119
0.0129631
0.0138501
0.0147741
0.0157363
0.0167377
0.0177796
0.0188632
0.0199898
0.0211606
0.0223769
0.0236398
0.0249508
0.026311
0.0277216
0.0291838
0.0306988
0.0322677
0.0338915
0.0355711
0.0373075
0.0391014
0.0409535
0.0428641
0.0448337
0.0468623
0.04895
0.0510963
0.0533007
0.0555623
0.0578801
0.0602524
0.0626775
0.0651531
0.0676765
0.0702446
0.072854
0.0755005
0.0781798
0.0808867
0.0836158
0.0863611
0.089116
0.0918736
0.0946265
0.0973666
0.100086
0.102775
0.105426
0.108029
0.110574
0.113053
0.115455
0.117772
0.119994
0.122112
0.124119
0.126005
0.127764
0.12939
0.130877
0.132221
0.133418
0.134465
0.135363
0.136112
0.136712
0.137167
0.13748
0.137658
0.137706
0.137631
0.137442
0.137146
0.136754
0.136275
0.135718
0.135093
0.134407
0.133671
0.13289
0.132072
0.131225
0.13036
0.129402
0.128284
0.00380017
0.00335587
0.00297761
0.00263854
0.00230858
0.00198962
0.00168382
0.00139112
0.00111142
0.000844763
0.000591189
0.000350683
0.000123201
-9.13282e-05
-0.000293023
-0.000482035
-0.000658544
-0.000822739
-0.00097482
-0.001115
-0.00124349
-0.00136051
-0.00146625
-0.00156088
-0.00164455
-0.00171739
-0.0017795
-0.00183098
-0.00187185
-0.00190214
-0.00192182
-0.00193086
-0.00192916
-0.00191663
-0.00189314
-0.00185852
-0.00181258
-0.0017551
-0.00168585
-0.00160458
-0.00151102
-0.00140486
-0.00128581
-0.00115351
-0.00100761
-0.000847754
-0.000673563
-0.00048464
-0.000280572
-6.09266e-05
0.000174742
0.000426893
0.00069599
0.000982512
0.00128696
0.00160985
0.00195174
0.00231318
0.00269474
0.00309703
0.00352065
0.00396624
0.00443446
0.00492599
0.00544156
0.00598189
0.00654776
0.00713997
0.00775932
0.00840667
0.00908289
0.0097889
0.0105256
0.0112941
0.0120952
0.0129302
0.0137999
0.0147055
0.0156483
0.0166292
0.0176495
0.0187104
0.0198132
0.020959
0.0221492
0.023385
0.0246677
0.0259986
0.0273789
0.0288098
0.0302926
0.0318285
0.0334185
0.0350638
0.0367652
0.0385237
0.0403399
0.0422146
0.0441482
0.046141
0.0481931
0.0503043
0.0524743
0.0547023
0.0569876
0.0593287
0.061724
0.0641716
0.0666689
0.0692131
0.0718009
0.0744284
0.0770914
0.0797851
0.0825041
0.0852426
0.0879943
0.0907521
0.0935088
0.0962565
0.0989869
0.101691
0.104361
0.106986
0.109557
0.112064
0.114498
0.116849
0.119108
0.121265
0.123312
0.12524
0.127041
0.12871
0.130239
0.131624
0.132862
0.133948
0.134882
0.135664
0.136294
0.136775
0.137111
0.137306
0.137367
0.1373
0.137112
0.136813
0.136411
0.135916
0.135337
0.134682
0.133962
0.133184
0.132355
0.131481
0.130574
0.129643
0.128608
0.127397
0.00417072
0.00367784
0.00326159
0.00289197
0.00253515
0.00219295
0.00186752
0.00155846
0.00126534
0.000987911
0.000725911
0.000479048
0.000247014
2.94726e-05
-0.000173934
-0.000363574
-0.000539815
-0.000703022
-0.000853561
-0.000991791
-0.00111806
-0.00123267
-0.00133591
-0.00142803
-0.00150925
-0.00157975
-0.00163969
-0.00168918
-0.00172828
-0.00175701
-0.00177539
-0.00178336
-0.00178085
-0.00176775
-0.00174393
-0.00170921
-0.0016634
-0.00160626
-0.00153757
-0.00145707
-0.00136447
-0.00125946
-0.00114173
-0.00101093
-0.000866719
-0.00070873
-0.000536587
-0.000349898
-0.000148254
6.87673e-05
0.000301597
0.000550676
0.000816452
0.00109938
0.00139995
0.00171866
0.00205602
0.00241257
0.00278885
0.00318542
0.00360286
0.00404177
0.00450278
0.00498653
0.00549371
0.006025
0.00658114
0.00716288
0.007771
0.00840629
0.00906961
0.00976181
0.0104838
0.0112365
0.012021
0.0128382
0.0136891
0.0145748
0.0154965
0.0164553
0.0174523
0.0184887
0.0195658
0.0206849
0.0218471
0.0230539
0.0243064
0.0256061
0.0269541
0.0283519
0.0298006
0.0313016
0.032856
0.0344649
0.0361296
0.0378508
0.0396297
0.0414668
0.0433629
0.0453184
0.0473335
0.0494084
0.0515428
0.0537364
0.0559883
0.0582975
0.0606627
0.0630819
0.0655531
0.0680735
0.0706402
0.0732494
0.0758971
0.0785787
0.0812892
0.0840227
0.086773
0.0895335
0.0922968
0.0950551
0.0978001
0.100523
0.103215
0.105867
0.108468
0.111009
0.11348
0.115871
0.118172
0.120374
0.122467
0.124443
0.126293
0.12801
0.129588
0.13102
0.132304
0.133434
0.13441
0.13523
0.135894
0.136406
0.136767
0.136983
0.137058
0.137
0.136815
0.136513
0.136101
0.135589
0.134987
0.134303
0.133546
0.132725
0.131847
0.130918
0.129951
0.128955
0.127845
0.126545
0.00452292
0.00398178
0.00352761
0.0031273
0.00274334
0.00237752
0.00203196
0.00170596
0.00139879
0.0011099
0.000838754
0.000584795
0.000347444
0.000126114
-7.97764e-05
-0.000270798
-0.000447508
-0.000610453
-0.000760159
-0.000897126
-0.00102181
-0.00113463
-0.00123597
-0.00132614
-0.00140545
-0.00147413
-0.00153237
-0.00158031
-0.00161805
-0.00164563
-0.00166306
-0.00167031
-0.00166731
-0.00165395
-0.00163009
-0.00159554
-0.00155011
-0.00149357
-0.00142568
-0.00134617
-0.00125475
-0.00115111
-0.00103493
-0.000905857
-0.000763557
-0.000607669
-0.000437818
-0.000253615
-5.46593e-05
0.000159456
0.000389145
0.000634828
0.000896934
0.0011759
0.0014722
0.00178629
0.00211867
0.00246983
0.00284029
0.00323057
0.00364122
0.0040728
0.00452589
0.00500111
0.0054991
0.00602051
0.00656602
0.00713633
0.0077322
0.00835437
0.00900366
0.00968088
0.0103869
0.0111226
0.011889
0.012687
0.0135177
0.014382
0.0152811
0.0162161
0.0171881
0.0181983
0.019248
0.0203385
0.021471
0.0226469
0.0238674
0.0251339
0.0264478
0.0278105
0.0292232
0.0306873
0.0322042
0.033775
0.035401
0.0370833
0.0388229
0.0406208
0.0424777
0.0443943
0.046371
0.0484082
0.0505058
0.0526637
0.0548813
0.0571578
0.059492
0.0618825
0.0643271
0.0668237
0.0693692
0.0719604
0.0745933
0.0772637
0.0799666
0.0826965
0.0854472
0.0882123
0.0909845
0.093756
0.0965186
0.0992636
0.101982
0.104664
0.107299
0.109879
0.112392
0.114828
0.117177
0.119429
0.121575
0.123604
0.125509
0.127281
0.128914
0.1304
0.131736
0.132916
0.133938
0.134802
0.135506
0.136052
0.136442
0.136682
0.136775
0.136728
0.136548
0.136244
0.135823
0.135295
0.13467
0.133955
0.133162
0.132298
0.131371
0.130387
0.12936
0.1283
0.127118
0.12573
0.00485235
0.0042633
0.00377135
0.00334032
0.00292908
0.00253939
0.00217336
0.00183
0.00150828
0.00120739
0.000926525
0.000664854
0.00042154
0.000195766
-1.32639e-05
-0.000206324
-0.000384162
-0.0005475
-0.000697017
-0.000833342
-0.000957049
-0.00106866
-0.00116865
-0.00125742
-0.00133532
-0.00140266
-0.00145966
-0.00150648
-0.00154326
-0.00157006
-0.00158691
-0.00159378
-0.0015906
-0.00157726
-0.00155362
-0.0015195
-0.00147469
-0.00141897
-0.00135209
-0.00127378
-0.00118373
-0.00108164
-0.00096719
-0.000840033
-0.000699833
-0.000546236
-0.000378873
-0.000197358
-1.30621e-06
0.000209673
0.000435973
0.000677993
0.000936141
0.00121084
0.00150252
0.00181163
0.00213863
0.00248398
0.00284815
0.00323163
0.00363494
0.00405859
0.00450314
0.00496915
0.00545722
0.00596795
0.006502