/*--------------------------------*- C++ -*----------------------------------*\
  =========                 |
  \\      /  F ield         | OpenFOAM: The Open Source CFD Toolbox
   \\    /   O peration     | Website:  https://openfoam.org
    \\  /    A nd           | Version:  7
     \\/     M anipulation  |
\*---------------------------------------------------------------------------*/
FoamFile
{
    version     2.0;
    format      ascii;
    class       volScalarField;
    location    "0.1875";
    object      p;
}
// * * * * * * * * * * * * * * * * * * * * * * * * * * * * * * * * * * * * * //

dimensions      [0 2 -2 0 0 0 0];

internalField   nonuniform List<scalar> 
12800
(
1.56841e-06
2.80871e-05
-1.11524e-05
-0.000126645
-0.000309349
-0.00054828
-0.000831979
-0.00114938
-0.00149051
-0.00184668
-0.00221046
-0.00257557
-0.00293675
-0.00328969
-0.00363088
-0.0039575
-0.00426733
-0.00455869
-0.00483033
-0.00508141
-0.00531141
-0.00552002
-0.00570717
-0.00587297
-0.00601765
-0.00614158
-0.00624517
-0.00632887
-0.00639317
-0.00643857
-0.00646555
-0.0064746
-0.00646618
-0.0064407
-0.00639854
-0.00634002
-0.00626541
-0.00617496
-0.00606885
-0.00594724
-0.0058102
-0.0056578
-0.00549003
-0.00530684
-0.00510814
-0.0048938
-0.00466362
-0.00441738
-0.00415479
-0.00387554
-0.00357927
-0.00326559
-0.00293405
-0.00258419
-0.00221548
-0.00182736
-0.00141921
-0.000990389
-0.000540201
-6.79151e-05
0.000427241
0.000946081
0.00148947
0.00205831
0.00265357
0.00327623
0.00392736
0.00460804
0.0053194
0.00606262
0.00683891
0.00764958
0.00849592
0.00937932
0.0103012
0.0112629
0.012266
0.0133119
0.0144022
0.0155385
0.0167223
0.0179552
0.0192387
0.0205745
0.0219642
0.0234093
0.0249112
0.0264716
0.0280918
0.0297733
0.0315172
0.0333247
0.0351969
0.0371346
0.0391387
0.0412097
0.0433479
0.0455535
0.0478265
0.0501663
0.0525724
0.0550437
0.0575788
0.060176
0.0628331
0.0655477
0.0683165
0.0711362
0.0740027
0.0769115
0.0798575
0.0828353
0.0858387
0.0888611
0.0918953
0.0949337
0.0979681
0.10099
0.10399
0.106959
0.109887
0.112764
0.11558
0.118324
0.120986
0.123555
0.126022
0.128376
0.130607
0.132707
0.134668
0.13648
0.138137
0.139634
0.140965
0.142126
0.143114
0.143929
0.14457
0.14504
0.14534
0.145476
0.145454
0.145282
0.144969
0.144527
0.143968
0.143306
0.142559
0.141745
0.140883
0.139996
0.139111
0.138254
0.137458
0.136758
0.136191
0.135796
0.135613
0.135634
-2.233e-05
3.29824e-06
-3.66145e-05
-0.000141645
-0.000301928
-0.00050988
-0.000757263
-0.00103546
-0.00133636
-0.00165256
-0.00197758
-0.00230576
-0.00263226
-0.00295302
-0.00326464
-0.00356438
-0.00384999
-0.0041197
-0.00437214
-0.00460634
-0.00482161
-0.00501752
-0.00519382
-0.00535047
-0.00548753
-0.00560518
-0.0057037
-0.00578341
-0.00584464
-0.00588777
-0.00591317
-0.0059212
-0.00591223
-0.00588656
-0.0058445
-0.00578629
-0.00571214
-0.00562223
-0.00551668
-0.00539561
-0.00525905
-0.00510702
-0.00493949
-0.00475637
-0.00455757
-0.0043429
-0.00411218
-0.00386513
-0.00360147
-0.00332088
-0.00302298
-0.00270738
-0.00237365
-0.00202129
-0.00164978
-0.00125857
-0.000847042
-0.000414553
3.95817e-05
0.000516081
0.0010157
0.00153924
0.00208755
0.00266152
0.00326207
0.00389019
0.00454689
0.00523322
0.00595028
0.00669919
0.00748115
0.00829739
0.00914916
0.0100378
0.0109646
0.011931
0.0129383
0.013988
0.0150815
0.0162203
0.0174059
0.0186397
0.0199233
0.0212581
0.0226455
0.0240871
0.0255843
0.0271383
0.0287505
0.0304222
0.0321545
0.0339483
0.0358047
0.0377243
0.0397078
0.0417557
0.0438681
0.0460452
0.0482866
0.050592
0.0529605
0.055391
0.0578822
0.060432
0.0630385
0.065699
0.0684105
0.0711695
0.0739721
0.0768139
0.0796898
0.0825946
0.0855223
0.0884666
0.0914205
0.0943767
0.0973273
0.100264
0.103179
0.106062
0.108904
0.111696
0.114428
0.11709
0.119673
0.122166
0.124561
0.126847
0.129016
0.131059
0.132969
0.134738
0.136361
0.13783
0.139142
0.140294
0.141283
0.142108
0.14277
0.143271
0.143613
0.143802
0.143843
0.143744
0.143514
0.143165
0.142708
0.142157
0.141528
0.140838
0.140106
0.139353
0.138602
0.137877
0.137206
0.136617
0.136138
0.135798
0.135633
0.135654
1.79052e-05
4.37675e-05
3.50617e-06
-9.61665e-05
-0.000243883
-0.000433251
-0.00065763
-0.000909898
-0.0011832
-0.00147118
-0.00176812
-0.00206897
-0.00236931
-0.00266536
-0.00295393
-0.00323238
-0.00349851
-0.00375058
-0.00398718
-0.00420725
-0.00441003
-0.004595
-0.00476183
-0.00491033
-0.00504049
-0.00515236
-0.00524609
-0.0053219
-0.00538003
-0.00542076
-0.00544437
-0.00545113
-0.00544131
-0.00541516
-0.00537291
-0.00531474
-0.00524079
-0.0051512
-0.00504604
-0.00492538
-0.00478923
-0.00463756
-0.00447032
-0.0042874
-0.00408867
-0.00387394
-0.00364298
-0.00339553
-0.00313128
-0.00284989
-0.00255099
-0.00223419
-0.00189902
-0.00154502
-0.00117165
-0.000778362
-0.000364541
7.04539e-05
0.000527296
0.00100669
0.00150939
0.00203617
0.00258787
0.00316535
0.00376953
0.00440137
0.00506184
0.00575197
0.00647282
0.00722549
0.00801112
0.0088309
0.00968606
0.0105779
0.0115076
0.0124765
0.013486
0.0145374
0.0156321
0.0167715
0.0179571
0.0191901
0.0204721
0.0218044
0.0231883
0.0246253
0.0261167
0.0276637
0.0292675
0.0309293
0.0326501
0.0344308
0.0362723
0.0381752
0.04014
0.0421672
0.0442568
0.0464088
0.0486229
0.0508986
0.053235
0.055631
0.0580851
0.0605955
0.06316
0.0657759
0.0684404
0.07115
0.0739008
0.0766885
0.0795083
0.0823549
0.0852225
0.0881051
0.0909958
0.0938877
0.0967731
0.0996441
0.102492
0.105309
0.108086
0.110813
0.113482
0.116082
0.118605
0.121042
0.123383
0.125618
0.127741
0.129743
0.131616
0.133354
0.134951
0.136401
0.137701
0.138847
0.139838
0.140672
0.141351
0.141876
0.14225
0.142478
0.142567
0.142523
0.142356
0.142075
0.141693
0.141224
0.140681
0.140081
0.139441
0.138782
0.138123
0.137486
0.136894
0.136372
0.135944
0.135631
0.135467
0.135473
0.000134667
0.000149656
0.000102965
2.46459e-06
-0.000140773
-0.000320872
-0.000531964
-0.000767904
-0.00102276
-0.00129102
-0.00156762
-0.00184806
-0.00212836
-0.00240507
-0.00267523
-0.00293633
-0.00318633
-0.00342353
-0.00364655
-0.00385435
-0.00404612
-0.00422129
-0.00437948
-0.00452045
-0.0046441
-0.00475041
-0.00483946
-0.00491137
-0.00496631
-0.00500449
-0.00502611
-0.00503137
-0.00502047
-0.00499362
-0.00495095
-0.00489261
-0.00481869
-0.00472928
-0.00462441
-0.00450411
-0.00436835
-0.00421709
-0.00405022
-0.00386764
-0.00366918
-0.00345462
-0.00322374
-0.00297624
-0.0027118
-0.00243009
-0.00213072
-0.00181329
-0.00147734
-0.00112239
-0.000747916
-0.000353358
6.18877e-05
0.000498458
0.00095702
0.00143827
0.00194294
0.0024718
0.00302567
0.0036054
0.00421188
0.00484605
0.00550887
0.00620131
0.00692443
0.00767928
0.00846697
0.00928866
0.0101455
0.0110388
0.0119697
0.0129394
0.0139493
0.0150007
0.0160949
0.0172333
0.0184171
0.0196477
0.0209265
0.0222548
0.0236338
0.0250649
0.0265494
0.0280883
0.0296828
0.0313341
0.033043
0.0348104
0.036637
0.0385235
0.0404704
0.0424778
0.0445459
0.0466747
0.0488637
0.0511124
0.05342
0.0557851
0.0582065
0.0606822
0.06321
0.0657875
0.0684117
0.0710792
0.0737862
0.0765285
0.0793015
0.0820998
0.0849181
0.0877502
0.0905897
0.0934296
0.0962627
0.0990813
0.101877
0.104642
0.107368
0.110044
0.112664
0.115217
0.117695
0.120088
0.122388
0.124587
0.126675
0.128646
0.130493
0.132209
0.133787
0.135225
0.136516
0.13766
0.138653
0.139496
0.140189
0.140733
0.141133
0.141392
0.141518
0.141516
0.141395
0.141167
0.140841
0.140431
0.139951
0.139415
0.138841
0.138245
0.137646
0.137065
0.13652
0.136034
0.135625
0.135314
0.135127
0.135083
0.000320122
0.000311824
0.00025097
0.000143805
-7.77795e-07
-0.000177425
-0.000380957
-0.000606053
-0.000847603
-0.00110083
-0.00136132
-0.00162508
-0.00188858
-0.00214873
-0.00240282
-0.00264857
-0.00288404
-0.00310765
-0.00331812
-0.00351441
-0.00369574
-0.00386151
-0.00401132
-0.00414488
-0.00426205
-0.00436277
-0.00444703
-0.0045149
-0.0045665
-0.00460194
-0.00462138
-0.00462497
-0.00461284
-0.00458511
-0.0045419
-0.00448328
-0.00440932
-0.00432004
-0.00421544
-0.00409552
-0.00396021
-0.00380943
-0.00364307
-0.00346098
-0.00326298
-0.00304883
-0.00281827
-0.00257101
-0.00230671
-0.00202504
-0.00172559
-0.00140795
-0.00107167
-0.000716268
-0.000341212
5.40575e-05
0.000470138
0.000907658
0.00136727
0.00184967
0.00235557
0.00288574
0.00344097
0.0040221
0.00463
0.00526558
0.00592977
0.00662353
0.00734786
0.00810381
0.00889244
0.00971488
0.0105723
0.0114657
0.0123965
0.0133658
0.0143748
0.0154248
0.0165171
0.0176529
0.0188336
0.0200604
0.0213346
0.0226575
0.0240302
0.025454
0.0269301
0.0284597
0.0300437
0.0316832
0.0333791
0.0351321
0.036943
0.0388123
0.0407404
0.0427276
0.0447739
0.0468792
0.0490432
0.0512652
0.0535444
0.0558795
0.0582692
0.0607116
0.0632046
0.0657457
0.068332
0.0709603
0.0736267
0.0763273
0.0790573
0.0818119
0.0845855
0.0873724
0.0901662
0.0929602
0.0957473
0.09852
0.101271
0.103991
0.106672
0.109306
0.111884
0.114398
0.116838
0.119195
0.121462
0.12363
0.125692
0.127639
0.129465
0.131163
0.132729
0.134157
0.135444
0.136587
0.137584
0.138435
0.139141
0.139703
0.140125
0.140412
0.140568
0.140601
0.14052
0.140335
0.140055
0.139693
0.139262
0.138777
0.138252
0.137703
0.137148
0.136603
0.136087
0.135616
0.135209
0.134881
0.13465
0.134525
0.000564488
0.000523486
0.000441741
0.000322525
0.000171302
-7.13596e-06
-0.000208194
-0.000427336
-0.000660199
-0.000902677
-0.00115095
-0.00140155
-0.00165137
-0.00189765
-0.00213801
-0.00237038
-0.00259301
-0.00280443
-0.00300346
-0.00318914
-0.00336072
-0.00351763
-0.00365944
-0.00378587
-0.00389672
-0.00399192
-0.00407141
-0.00413523
-0.00418341
-0.00421604
-0.00423321
-0.00423501
-0.00422154
-0.00419287
-0.00414904
-0.00409009
-0.00401605
-0.00392689
-0.00382259
-0.00370309
-0.00356831
-0.00341812
-0.0032524
-0.00307098
-0.00287363
-0.00266012
-0.00243015
-0.00218343
-0.00191961
-0.00163833
-0.0013392
-0.00102179
-0.000685645
-0.000330278
4.48356e-05
0.000440256
0.000856574
0.00129441
0.00175442
0.00223726
0.00274366
0.00327435
0.00383012
0.0044118
0.00502023
0.00565628
0.00632087
0.00701493
0.00773943
0.00849539
0.00928384
0.0101059
0.0109626
0.011855
0.0127844
0.0137519
0.0147587
0.015806
0.016895
0.0180269
0.0192031
0.0204246
0.0216928
0.0230088
0.0243738
0.025789
0.0272554
0.0287743
0.0303465
0.0319731
0.0336548
0.0353924
0.0371866
0.0390379
0.0409467
0.0429131
0.0449373
0.047019
0.049158
0.0513536
0.053605
0.0559109
0.05827
0.0606805
0.0631404
0.0656471
0.068198
0.0707897
0.0734187
0.076081
0.0787721
0.0814872
0.0842209
0.0869676
0.0897212
0.092475
0.0952223
0.0979556
0.100667
0.10335
0.105994
0.108593
0.111137
0.113619
0.116028
0.118358
0.120599
0.122743
0.124784
0.126713
0.128524
0.130211
0.131768
0.133191
0.134476
0.135621
0.136624
0.137484
0.138202
0.138781
0.139223
0.139532
0.139715
0.139778
0.139729
0.139577
0.139333
0.139009
0.138616
0.138168
0.137679
0.137163
0.136635
0.136112
0.135607
0.135136
0.134714
0.134355
0.134064
0.133838
0.000857451
0.000777161
0.000669195
0.00053322
0.000370672
0.000185784
-1.73718e-05
-0.000234992
-0.000463392
-0.000699077
-0.000938797
-0.00117957
-0.00141869
-0.00165377
-0.00188273
-0.00210373
-0.00231524
-0.00251595
-0.00270478
-0.00288086
-0.00304351
-0.00319219
-0.00332652
-0.0034462
-0.00355103
-0.0036409
-0.00371576
-0.00377558
-0.00382039
-0.00385021
-0.00386509
-0.0038651
-0.00385025
-0.0038206
-0.00377613
-0.00371685
-0.00364273
-0.00355373
-0.00344977
-0.00333077
-0.00319661
-0.00304715
-0.00288224
-0.00270166
-0.00250519
-0.00229255
-0.00206346
-0.00181758
-0.00155457
-0.00127406
-0.000975638
-0.000658886
-0.00032334
3.14915e-05
0.000406133
0.000801138
0.00121709
0.00165461
0.00211433
0.00259691
0.00310306
0.00363349
0.00418899
0.00477035
0.00537839
0.00601398
0.00667799
0.00737133
0.00809494
0.00884981
0.00963694
0.0104574
0.0113122
0.0122024
0.0131291
0.0140935
0.0150967
0.0161399
0.0172242
0.0183509
0.019521
0.0207359
0.0219966
0.0233043
0.0246602
0.0260653
0.0275208
0.0290277
0.0305869
0.0321993
0.0338658
0.035587
0.0373636
0.0391961
0.0410848
0.04303
0.0450317
0.0470897
0.0492038
0.0513733
0.0535973
0.0558749
0.0582045
0.0605845
0.0630129
0.0654873
0.0680051
0.0705631
0.0731577
0.0757852
0.0784412
0.081121
0.0838195
0.086531
0.0892497
0.0919691
0.0946826
0.0973829
0.100063
0.102714
0.105329
0.1079
0.110417
0.112873
0.11526
0.117569
0.119791
0.121919
0.123946
0.125864
0.127666
0.129346
0.130899
0.132321
0.133608
0.134758
0.135768
0.136638
0.137369
0.137962
0.138422
0.138751
0.138956
0.139043
0.139019
0.138895
0.138678
0.138382
0.138016
0.137593
0.137127
0.13663
0.136117
0.1356
0.135092
0.134607
0.134158
0.133756
0.133393
0.133057
0.00118888
0.00106484
0.00092659
0.000770007
0.000592229
0.000396959
0.00018782
-3.20684e-05
-0.00025965
-0.000491994
-0.000726371
-0.000960266
-0.00119139
-0.0014177
-0.0016374
-0.00184893
-0.00205097
-0.00224237
-0.0024222
-0.0025897
-0.00274427
-0.00288544
-0.00301284
-0.00312621
-0.00322537
-0.0033102
-0.00338062
-0.00343661
-0.00347814
-0.00350523
-0.00351788
-0.00351612
-0.00349994
-0.00346932
-0.00342425
-0.00336468
-0.00329054
-0.00320176
-0.00309823
-0.00297983
-0.00284642
-0.00269784
-0.00253389
-0.00235436
-0.00215898
-0.00194748
-0.00171953
-0.0014748
-0.00121294
-0.000933556
-0.000636244
-0.000320572
1.3925e-05
0.000367739
0.000741392
0.00113544
0.00155045
0.00198703
0.00244581
0.00292745
0.00343261
0.00396203
0.00451645
0.00509665
0.00570344
0.00633765
0.00700012
0.00769174
0.00841343
0.00916614
0.00995083
0.0107685
0.0116202
0.0125069
0.0134297
0.0143898
0.015388
0.0164258
0.017504
0.018624
0.0197868
0.0209935
0.0222453
0.0235433
0.0248887
0.0262823
0.0277254
0.0292189
0.0307638
0.0323608
0.0340109
0.0357146
0.0374726
0.0392854
0.0411533
0.0430766
0.0450554
0.0470895
0.0491785
0.051322
0.0535191
0.0557688
0.0580697
0.0604204
0.0628187
0.0652625
0.0677492
0.0702758
0.0728388
0.0754346
0.0780589
0.0807072
0.0833745
0.0860554
0.088744
0.0914342
0.0941193
0.0967924
0.0994461
0.102073
0.104665
0.107214
0.109712
0.11215
0.114521
0.116815
0.119026
0.121144
0.123163
0.125076
0.126874
0.128554
0.130108
0.131534
0.132826
0.133983
0.135002
0.135883
0.136627
0.137236
0.137711
0.138058
0.138282
0.138388
0.138385
0.13828
0.138084
0.137807
0.137459
0.137052
0.136598
0.136109
0.135597
0.135075
0.134554
0.134044
0.133557
0.133103
0.132663
0.132213
0.00154941
0.00137873
0.00120721
0.00102699
0.000830819
0.000621916
0.00040354
0.000178189
-5.16826e-05
-0.000283669
-0.000515512
-0.000745139
-0.00097066
-0.00119038
-0.00140279
-0.00160661
-0.00180071
-0.00198416
-0.00215617
-0.0023161
-0.00246345
-0.00259782
-0.00271889
-0.00282646
-0.00292036
-0.00300048
-0.00306674
-0.0031191
-0.00315753
-0.00318203
-0.00319257
-0.00318914
-0.0031717
-0.00314022
-0.00309462
-0.00303483
-0.00296077
-0.0028723
-0.00276931
-0.00265164
-0.00251913
-0.00237159
-0.0022088
-0.00203053
-0.00183647
-0.00162634
-0.00139982
-0.00115655
-0.000896157
-0.000618255
-0.000322429
-8.24444e-06
0.000324767
0.000677099
0.00104927
0.00144183
0.00185534
0.00229039
0.00274761
0.00322763
0.00373112
0.00425879
0.00481136
0.0053896
0.00599429
0.00662622
0.00728622
0.00797515
0.00869391
0.0094434
0.0102246
0.0110384
0.0118858
0.0127678
0.0136854
0.0146398
0.0156318
0.0166627
0.0177336
0.0188454
0.0199994
0.0211966
0.0224381
0.0237249
0.0250582
0.026439
0.0278683
0.0293471
0.0308762
0.0324566
0.0340889
0.035774
0.0375123
0.0393044
0.0411507
0.0430514
0.0450066
0.0470162
0.0490799
0.0511973
0.0533675
0.0555897
0.0578626
0.0601846
0.0625541
0.0649687
0.067426
0.0699231
0.0724568
0.0750235
0.0776191
0.0802393
0.0828791
0.0855333
0.0881962
0.0908618
0.0935235
0.0961746
0.0988079
0.101416
0.103991
0.106524
0.109009
0.111436
0.113797
0.116084
0.118289
0.120404
0.122422
0.124334
0.126136
0.127819
0.12938
0.130813
0.132114
0.133282
0.134313
0.135207
0.135965
0.136589
0.13708
0.137443
0.137682
0.137805
0.137818
0.137728
0.137546
0.137281
0.136943
0.136543
0.136092
0.135602
0.135083
0.134547
0.134002
0.133459
0.132927
0.132416
0.131894
0.131331
0.00193059
0.00171147
0.00150459
0.00129842
0.00108133
0.000856149
0.000625843
0.000392339
0.000157537
-7.66487e-05
-0.000308404
-0.000536061
-0.000758112
-0.0009732
-0.00118012
-0.00137785
-0.00156547
-0.00174225
-0.00190756
-0.00206092
-0.0022019
-0.00233022
-0.00244561
-0.00254792
-0.00263701
-0.0027128
-0.00277523
-0.00282424
-0.00285981
-0.00288191
-0.00289051
-0.00288556
-0.00286701
-0.00283477
-0.00278877
-0.0027289
-0.00265502
-0.00256701
-0.00246469
-0.0023479
-0.00221646
-0.00207014
-0.00190871
-0.00173189
-0.00153939
-0.0013309
-0.00110607
-0.000864544
-0.000605941
-0.000329861
-3.58869e-05
0.000276421
0.000607531
0.000957937
0.00132816
0.00171872
0.0021302
0.00256316
0.00301822
0.00349599
0.00399714
0.00452235
0.00507234
0.00564784
0.0062496
0.00687839
0.00753502
0.00822032
0.00893515
0.00968041
0.010457
0.0112658
0.0121078
0.0129839
0.0138951
0.0148425
0.015827
0.0168498
0.0179118
0.0190141
0.0201579
0.0213441
0.0225738
0.023848
0.0251678
0.0265343
0.0279483
0.0294109
0.0309229
0.0324852
0.0340985
0.0357636
0.0374811
0.0392514
0.041075
0.0429522
0.0448831
0.0468676
0.0489056
0.0509965
0.0531398
0.0553346
0.0575797
0.0598738
0.0622151
0.0646015
0.0670308
0.0695001
0.0720065
0.0745463
0.0771158
0.0797107
0.0823262
0.0849573
0.0875984
0.0902435
0.0928864
0.0955203
0.0981381
0.100732
0.103296
0.10582
0.108297
0.110718
0.113076
0.115362
0.117568
0.119686
0.121708
0.123627
0.125436
0.127129
0.128701
0.130146
0.131461
0.132642
0.133688
0.134598
0.135372
0.136011
0.136518
0.136896
0.13715
0.137287
0.137312
0.137233
0.13706
0.136802
0.136468
0.136068
0.135613
0.135114
0.13458
0.134021
0.133446
0.132863
0.132281
0.131708
0.131104
0.13043
0.0023248
0.00205624
0.00181256
0.00157869
0.00133873
0.00109517
0.000850727
0.000606824
0.000364866
0.000126311
-0.000107457
-0.000335156
-0.000555629
-0.000767846
-0.0009709
-0.00116401
-0.0013465
-0.00151783
-0.00167755
-0.00182528
-0.00196076
-0.00208376
-0.00219413
-0.00229175
-0.00237654
-0.00244843
-0.00250739
-0.00255338
-0.00258637
-0.00260633
-0.00261321
-0.00260694
-0.00258744
-0.00255462
-0.00250838
-0.00244856
-0.00237503
-0.00228762
-0.00218614
-0.00207041
-0.0019402
-0.00179529
-0.00163541
-0.00146027
-0.00126956
-0.00106294
-0.000840072
-0.000600578
-0.000344066
-7.01304e-05
0.000221646
0.000531707
0.000860524
0.00120859
0.00157641
0.00196451
0.00237345
0.00280378
0.00325611
0.00373104
0.00422921
0.0047513
0.00529799
0.00586999
0.00646803
0.00709285
0.00774523
0.00842599
0.00913595
0.00987596
0.0106469
0.0114496
0.012285
0.013154
0.0140576
0.0149968
0.0159725
0.0169858
0.0180377
0.0191291
0.0202612
0.0214349
0.0226514
0.0239115
0.0252164
0.0265669
0.0279642
0.0294091
0.0309026
0.0324454
0.0340383
0.0356821
0.0373774
0.0391247
0.0409246
0.0427772
0.0446829
0.0466415
0.0486531
0.0507172
0.0528332
0.0550005
0.0572179
0.0594843
0.0617979
0.064157
0.0665593
0.0690022
0.0714827
0.0739976
0.0765431
0.0791152
0.0817092
0.0843202
0.0869429
0.0895713
0.0921993
0.0948203
0.0974273
0.100013
0.10257
0.10509
0.107564
0.109986
0.112346
0.114637
0.116849
0.118976
0.121008
0.12294
0.124762
0.126471
0.128058
0.12952
0.130853
0.132052
0.133117
0.134045
0.134836
0.135493
0.136016
0.136409
0.136677
0.136826
0.136861
0.136791
0.136623
0.136367
0.136031
0.135626
0.135162
0.134647
0.134091
0.133504
0.132893
0.132265
0.131629
0.130993
0.130308
0.129527
0.00272516
0.00240668
0.00212529
0.00186245
0.00159812
0.00133452
0.00107417
0.000818028
0.000567056
0.000322289
8.47139e-05
-0.00014476
-0.000365314
-0.000576225
-0.000776868
-0.000966713
-0.00114532
-0.00131234
-0.00146749
-0.00161054
-0.00174134
-0.00185979
-0.00196579
-0.00205932
-0.00214032
-0.00220877
-0.00226468
-0.00230801
-0.00233875
-0.00235686
-0.00236226
-0.0023549
-0.00233468
-0.00230148
-0.00225517
-0.0021956
-0.00212259
-0.00203595
-0.00193549
-0.00182099
-0.00169222
-0.0015489
-0.00139077
-0.00121752
-0.00102881
-0.000824313
-0.000603655
-0.000366455
-0.000112317
0.00015917
0.000448426
0.000755898
0.00108206
0.00142739
0.0017924
0.0021776
0.00258352
0.00301073
0.00345979
0.00393131
0.00442591
0.00494424
0.00548696
0.00605475
0.00664831
0.00726837
0.00791567
0.008591
0.00929516
0.010029
0.0107932
0.0115888
0.0124165
0.0132773
0.0141721
0.0151018
0.0160674
0.0170699
0.0181103
0.0191894
0.0203084
0.0214683
0.0226699
0.0239145
0.0252028
0.0265361
0.0279151
0.0293408
0.0308141
0.0323359
0.033907
0.0355281
0.0371999
0.0389229
0.0406977
0.0425247
0.0444041
0.046336
0.0483203
0.0503568
0.0524451
0.0545845
0.0567741
0.0590128
0.0612991
0.0636313
0.0660072
0.0684246
0.0708806
0.073372
0.0758954
0.0784467
0.0810216
0.0836152
0.0862224
0.0888374
0.0914541
0.0940661
0.0966664
0.0992478
0.101803
0.104323
0.106801
0.109229
0.111597
0.113897
0.116122
0.118263
0.120312
0.122261
0.124103
0.125831
0.12744
0.128924
0.130279
0.131501
0.132587
0.133536
0.134348
0.135024
0.135565
0.135975
0.136257
0.136417
0.136461
0.136397
0.136232
0.135974
0.135634
0.135219
0.134739
0.134204
0.133622
0.133002
0.13235
0.131674
0.130983
0.130283
0.129518
0.128635
0.00312538
0.00275688
0.00243724
0.00214456
0.00185473
0.00156981
0.00129215
0.00102229
0.000760767
0.000508244
0.000265335
3.25965e-05
-0.000189476
-0.000400459
-0.000599996
-0.000787806
-0.000963675
-0.00112744
-0.00127898
-0.00141824
-0.00154518
-0.0016598
-0.00176211
-0.00185213
-0.00192989
-0.0019954
-0.00204869
-0.00208976
-0.0021186
-0.00213516
-0.00213939
-0.0021312
-0.0021105
-0.00207715
-0.00203099
-0.00197185
-0.00189955
-0.00181388
-0.00171462
-0.00160154
-0.00147438
-0.00133286
-0.00117667
-0.00100551
-0.000819029
-0.000616865
-0.000398647
-0.000163988
8.75161e-05
0.000356276
0.000642718
0.000947289
0.00127046
0.0016127
0.00197452
0.00235641
0.00275889
0.0031825
0.00362781
0.0040954
0.00458587
0.00509985
0.00563796
0.00620087
0.00678924
0.00740378
0.0080452
0.00871427
0.00941174
0.0101384
0.010895
0.0116824
0.0125013
0.0133528
0.0142376
0.0151567
0.016111
0.0171014
0.0181288
0.0191943
0.0202988
0.0214433
0.0226288
0.0238562
0.0251266
0.0264408
0.0278
0.029205
0.0306567
0.032156
0.0337037
0.0353006
0.0369474
0.0386447
0.0403932
0.0421933
0.0440452
0.0459492
0.0479053
0.0499135
0.0519733
0.0540842
0.0562456
0.0584564
0.0607153
0.0630207
0.0653708
0.0677633
0.0701956
0.0726647
0.0751673
0.0776996
0.0802573
0.0828358
0.08543
0.0880345
0.0906431
0.0932495
0.0958468
0.0984279
0.100985
0.103511
0.105997
0.108435
0.110816
0.113132
0.115375
0.117535
0.119606
0.121578
0.123445
0.1252
0.126835
0.128346
0.129728
0.130976
0.132089
0.133063
0.133899
0.134597
0.135158
0.135585
0.135882
0.136054
0.136107
0.136047
0.135883
0.135622
0.135273
0.134845
0.134347
0.133787
0.133176
0.132519
0.131824
0.131098
0.130349
0.129585
0.128742
0.127761
0.00351971
0.00310131
0.00274318
0.00242007
0.00210394
0.00179672
0.00150066
0.0012159
0.000942588
0.000681032
0.000431502
0.000194227
-3.06066e-05
-0.000242862
-0.000442452
-0.000629332
-0.000803497
-0.000964977
-0.00111383
-0.00125014
-0.001374
-0.00148551
-0.00158478
-0.0016719
-0.00174695
-0.00181002
-0.00186115
-0.00190037
-0.00192768
-0.00194304
-0.0019464
-0.00193768
-0.00191676
-0.00188349
-0.00183771
-0.00177922
-0.00170784
-0.00162333
-0.00152547
-0.00141399
-0.00128863
-0.00114907
-0.000995023
-0.000826141
-0.000642072
-0.000442442
-0.000226874
5.0256e-06
0.000253662
0.000519451
0.00080282
0.00110422
0.0014241
0.00176294
0.00212123
0.00249943
0.00289808
0.00331768
0.00375879
0.00422198
0.00470781
0.00521687
0.00574979
0.00630719
0.00688971
0.00749802
0.00813282
0.00879482
0.00948476
0.0102034
0.0109514
0.0117296
0.0125388
0.0133798
0.0142535
0.0151608
0.0161025
0.0170795
0.0180928
0.0191433
0.0202319
0.0213596
0.0225273
0.0237361
0.024987
0.0262808
0.0276185
0.0290012
0.0304296
0.0319048
0.0334276
0.0349987
0.0366191
0.0382893
0.04001
0.0417817
0.0436049
0.0454798
0.0474066
0.0493853
0.0514157
0.0534975
0.05563
0.0578125
0.0600437
0.0623224
0.0646467
0.0670146
0.0694238
0.0718714
0.0743542
0.0768687
0.0794108
0.081976
0.0845595
0.0871557
0.0897589
0.0923627
0.0949605
0.0975449
0.100109
0.102644
0.105142
0.107595
0.109994
0.112331
0.114597
0.116783
0.11888
0.120882
0.122779
0.124565
0.126232
0.127776
0.129189
0.13047
0.131613
0.132616
0.13348
0.134203
0.134786
0.135233
0.135547
0.135731
0.135793
0.135738
0.135573
0.135308
0.134949
0.134505
0.133986
0.1334
0.132755
0.13206
0.13132
0.130541
0.129734
0.128906
0.127988
0.126914
0.00390281
0.0034348
0.0030381
0.00268424
0.00234126
0.00201104
0.00169574
0.00139515
0.00110905
0.000837424
0.000580206
0.000337321
0.000108657
-0.000105922
-0.000306582
-0.000493512
-0.000666912
-0.000827
-0.000974004
-0.00110815
-0.00122967
-0.00133877
-0.00143563
-0.00152044
-0.00159335
-0.00165448
-0.00170391
-0.0017417
-0.00176787
-0.00178239
-0.00178521
-0.00177625
-0.00175538
-0.00172244
-0.00167727
-0.00161965
-0.00154939
-0.00146625
-0.00136996
-0.00126026
-0.00113687
-0.000999456
-0.000847709
-0.000681275
-0.000499786
-0.000302865
-9.0127e-05
0.000138823
0.000384394
0.000647005
0.000927083
0.00122507
0.00154141
0.00187658
0.00223103
0.00260524
0.00299971
0.00341493
0.00385145
0.0043098
0.00479052
0.00529419
0.00582137
0.00637268
0.00694873
0.00755015
0.00817763
0.00883183
0.00951344
0.0102232
0.0109617
0.0117298
0.0125282
0.0133578
0.0142193
0.0151136
0.0160415
0.0170039
0.0180018
0.0190359
0.0201072
0.0212167
0.0223653
0.023554
0.0247837
0.0260555
0.0273702
0.028729
0.0301326
0.031582
0.0330782
0.0346221
0.0362143
0.0378558
0.0395472
0.0412892
0.0430822
0.0449267
0.0468229
0.048771
0.050771
0.0528226
0.0549255
0.0570789
0.059282
0.0615334
0.0638318
0.0661752
0.0685614
0.070988
0.0734518
0.0759494
0.0784771
0.0810306
0.083605
0.0861951
0.0887951
0.091399
0.094
0.096591
0.0991646
0.101713
0.104227
0.1067
0.109122
0.111484
0.113778
0.115995
0.118125
0.120161
0.122094
0.123917
0.125622
0.127203
0.128654
0.129971
0.13115
0.132187
0.133082
0.133834
0.134444
0.134913
0.135245
0.135445
0.135516
0.135466
0.135301
0.13503
0.13466
0.1342
0.133658
0.133043
0.132364
0.131627
0.130841
0.130009
0.129144
0.128253
0.127261
0.126099
0.0042697
0.00375245
0.00331728
0.00293249
0.00256233
0.00220861
0.00187346
0.00155633
0.00125666
0.000974121
0.000708341
0.000458946
0.000225545
7.73833e-06
-0.000194884
-0.000382729
-0.000556206
-0.000715716
-0.00086165
-0.000994381
-0.00111425
-0.00122158
-0.00131666
-0.00139974
-0.00147104
-0.00153072
-0.00157892
-0.0016157
-0.00164112
-0.00165516
-0.00165778
-0.00164887
-0.00162833
-0.00159598
-0.00155164
-0.00149512
-0.00142618
-0.00134458
-0.00125004
-0.00114229
-0.00102101
-0.000885897
-0.000736594
-0.000572747
-0.000393979
-0.000199908
9.85382e-06
0.000235704
0.000478054
0.000737323
0.00101393
0.00130832
0.00162092
0.00195219
0.00230256
0.00267251
0.0030625
0.00347304
0.00390462
0.00435775
0.00483296
0.00533077
0.00585174
0.00639644
0.00696546
0.00755941
0.00817891
0.00882461
0.00949715
0.0101972
0.0109254
0.0116825
0.0124692
0.0132863
0.0141346
0.0150148
0.0159278
0.0168744
0.0178555
0.018872
0.0199247
0.0210146
0.0221426
0.0233097
0.0245168
0.025765
0.0270552
0.0283883
0.0297655
0.0311876
0.0326556
0.0341705
0.0357331
0.0373442
0.0390047
0.0407153
0.0424767
0.0442892
0.0461535
0.0480697
0.050038
0.0520584
0.0541306
0.0562541
0.0584282
0.0606519
0.0629238
0.0652424
0.0676057
0.0700113
0.0724564
0.0749378
0.0774519
0.0799946
0.0825613
0.0851469
0.0877458
0.0903519
0.0929587
0.0955591
0.0981457
0.10071
0.103245
0.105741
0.10819
0.110583
0.11291
0.115162
0.11733
0.119406
0.12138
0.123246
0.124994
0.126618
0.128113
0.129472
0.130691
0.131768
0.132699
0.133484
0.134124
0.134619
0.134973
0.135189
0.135272
0.135228
0.135064
0.134788
0.134406
0.133929
0.133364
0.132719
0.132004
0.131226
0.130391
0.129507
0.128583
0.12763
0.126567
0.125318
0.00461566
0.00404965
0.00357618
0.00316044
0.00276292
0.00238539
0.00202994
0.00169573
0.0013819
0.00108777
0.000812722
0.000556075
0.000317175
9.53687e-05
-0.000109985
-0.000299509
-0.000473813
-0.000633477
-0.000779049
-0.000911038
-0.00102991
-0.00113609
-0.00122997
-0.00131188
-0.00138209
-0.00144081
-0.00148821
-0.00152441
-0.00154946
-0.00156338
-0.0015661
-0.00155755
-0.0015376
-0.00150608
-0.00146282
-0.00140759
-0.00134016
-0.00126026
-0.00116763
-0.00106196
-0.00094294
-0.000810232
-0.000663484
-0.000502329
-0.000326386
-0.000135269
7.14112e-05
0.000294056
0.000533076
0.000788887
0.0010619
0.00135255
0.00166125
0.00198844
0.00233455
0.00270002
0.00308532
0.0034909
0.00391726
0.00436487
0.00483421
0.00532578
0.00584012
0.00637775
0.00693925
0.00752517
0.00813612
0.00877268
0.00943547
0.0101251
0.0108422
0.0115875
0.0123616
0.0131653
0.0139993
0.0148644
0.0157614
0.0166911
0.0176542
0.0186517
0.0196845
0.0207534
0.0218594
0.0230034
0.0241865
0.0254095
0.0266736
0.0279796
0.0293287
0.0307218
0.03216
0.0336442
0.0351754
0.0367546
0.0383826
0.0400602
0.0417882
0.0435674
0.0453981
0.047281
0.0492163
0.0512041
0.0532444
0.0553369
0.0574811
0.0596761
0.061921
0.0642143
0.0665542
0.0689387
0.0713651
0.0738305
0.0763316
0.0788643
0.0814242
0.0840065
0.0866058
0.089216
0.0918307
0.0944429
0.0970453
0.0996298
0.102188
0.104712
0.107192
0.109618
0.111983
0.114275
0.116487
0.118608
0.12063
0.122543
0.12434
0.126014
0.127557
0.128964
0.13023
0.13135
0.132323
0.133147
0.13382
0.134346
0.134724
0.13496
0.135057
0.135022
0.13486
0.134579
0.134187
0.133692
0.133104
0.132429
0.131677
0.130857
0.129975
0.129037
0.128055
0.127041
0.125907
0.124576
0.00493618
0.00432195
0.00381046
0.00336383
0.00293889
0.00253736
0.00216134
0.00180968
0.00148121
0.00117499
0.000890103
0.000625599
0.000380566
0.000154111
-5.46326e-05
-0.000246502
-0.000422296
-0.000582767
-0.000728611
-0.000860473
-0.000978946
-0.00108456
-0.0011778
-0.00125905
-0.00132864
-0.00138686
-0.00143391
-0.00146992
-0.00149498
-0.0015091
-0.00151224
-0.00150432
-0.00148521
-0.00145476
-0.00141277
-0.00135901
-0.00129325
-0.00121521
-0.0011246
-0.00102113
-0.000904455
-0.000774239
-0.000630118
-0.000471721
-0.000298665
-0.000110561
9.29835e-05
0.000312368
0.000548002
0.000800291
0.00106964
0.00135647
0.00166117
0.00198417
0.00232588
0.00268673
0.00306716
0.0034676
0.00388851
0.00433033
0.00479352
0.00527854
0.00578588
0.00631606
0.0068696
0.00744704
0.00804891
0.00867577
0.00932818
0.0100067
0.010712
0.0114447
0.0122054
0.0129948
0.0138137
0.0146627