/*--------------------------------*- C++ -*----------------------------------*\
  =========                 |
  \\      /  F ield         | OpenFOAM: The Open Source CFD Toolbox
   \\    /   O peration     | Website:  https://openfoam.org
    \\  /    A nd           | Version:  7
     \\/     M anipulation  |
\*---------------------------------------------------------------------------*/
FoamFile
{
    version     2.0;
    format      ascii;
    class       volScalarField;
    location    "0.2";
    object      p;
}
// * * * * * * * * * * * * * * * * * * * * * * * * * * * * * * * * * * * * * //

dimensions      [0 2 -2 0 0 0 0];

internalField   nonuniform List<scalar> 
51200
(
5.95256e-08
-6.00582e-05
-0.000141575
-0.000214392
-0.000269128
-0.000313164
-0.000348838
-0.000377799
-0.00040141
-0.000420846
-0.000436925
-0.000450284
-0.00046144
-0.00047097
-0.000479364
-0.000486931
-0.000493929
-0.000500617
-0.000507125
-0.000513667
-0.00052047
-0.00052765
-0.000535167
-0.000543072
-0.000551483
-0.000560441
-0.000569968
-0.000580142
-0.000591044
-0.00060272
-0.000615093
-0.000628148
-0.000641964
-0.000656549
-0.000671872
-0.000687913
-0.000704708
-0.000722293
-0.00074061
-0.000759625
-0.00077933
-0.000799753
-0.000820927
-0.000842767
-0.000865233
-0.000888331
-0.000912093
-0.000936507
-0.000961519
-0.000987065
-0.00101315
-0.00103979
-0.00106701
-0.00109475
-0.00112294
-0.00115157
-0.00118068
-0.00121027
-0.0012403
-0.00127072
-0.00130147
-0.00133256
-0.00136401
-0.00139581
-0.00142789
-0.00146021
-0.00149275
-0.00152552
-0.00155855
-0.00159182
-0.00162526
-0.00165881
-0.00169243
-0.00172615
-0.00176
-0.00179395
-0.00182795
-0.00186196
-0.00189593
-0.00192986
-0.00196376
-0.00199763
-0.00203144
-0.00206513
-0.00209866
-0.00213202
-0.00216522
-0.00219825
-0.00223109
-0.00226373
-0.0022961
-0.00232815
-0.00235988
-0.00239129
-0.00242238
-0.00245314
-0.00248351
-0.00251347
-0.00254296
-0.00257197
-0.00260048
-0.00262849
-0.00265601
-0.002683
-0.00270941
-0.00273519
-0.00276033
-0.0027848
-0.0028086
-0.00283172
-0.00285415
-0.00287586
-0.00289681
-0.00291696
-0.00293628
-0.00295476
-0.0029724
-0.00298921
-0.00300517
-0.00302027
-0.00303447
-0.00304776
-0.00306011
-0.0030715
-0.00308196
-0.00309149
-0.0031001
-0.00310776
-0.00311449
-0.00312025
-0.00312505
-0.00312886
-0.00313168
-0.00313353
-0.00313442
-0.00313438
-0.00313342
-0.00313153
-0.00312873
-0.00312503
-0.00312047
-0.00311505
-0.00310884
-0.0031019
-0.0030943
-0.00308612
-0.00307745
-0.00306837
-0.00305901
-0.00304948
-0.00303992
-0.00303051
-0.00302141
-0.00301287
-0.00300516
-0.00299857
-0.00299342
-0.00299001
-0.00298859
-0.00298885
-5.82945e-05
-0.000115213
-0.000180094
-0.000238371
-0.000286725
-0.000327024
-0.000360544
-0.000388269
-0.000411295
-0.000430501
-0.000446721
-0.000460479
-0.000472245
-0.000482531
-0.000491605
-0.000499907
-0.000507723
-0.000515167
-0.000522382
-0.000529575
-0.000536928
-0.000544539
-0.000552483
-0.000560833
-0.000569659
-0.000578993
-0.000588842
-0.000599282
-0.000610379
-0.000622157
-0.000634583
-0.000647701
-0.000661559
-0.000676141
-0.000691396
-0.000707341
-0.000724032
-0.000741483
-0.000759628
-0.000778423
-0.000797898
-0.000818105
-0.000839009
-0.00086055
-0.000882688
-0.000905459
-0.000928887
-0.000952935
-0.00097756
-0.0010027
-0.00102838
-0.00105465
-0.00108147
-0.00110875
-0.00113648
-0.00116465
-0.0011933
-0.00122241
-0.00125195
-0.00128184
-0.00131206
-0.00134265
-0.00137361
-0.0014049
-0.00143645
-0.00146824
-0.00150025
-0.0015325
-0.00156499
-0.0015977
-0.00163057
-0.00166354
-0.00169662
-0.00172982
-0.00176314
-0.00179654
-0.00182997
-0.00186339
-0.00189679
-0.00193015
-0.00196351
-0.00199685
-0.00203011
-0.00206323
-0.00209619
-0.00212899
-0.00216163
-0.00219412
-0.00222643
-0.00225852
-0.00229034
-0.00232183
-0.00235302
-0.0023839
-0.00241448
-0.00244471
-0.00247457
-0.00250401
-0.00253299
-0.00256148
-0.00258949
-0.00261703
-0.00264408
-0.0026706
-0.00269655
-0.00272187
-0.00274657
-0.00277061
-0.00279399
-0.00281671
-0.00283876
-0.00286011
-0.0028807
-0.0029005
-0.00291948
-0.00293766
-0.00295502
-0.00297156
-0.00298729
-0.00300217
-0.00301619
-0.0030293
-0.00304149
-0.00305277
-0.00306314
-0.00307261
-0.00308119
-0.00308887
-0.00309565
-0.0031015
-0.00310642
-0.00311038
-0.00311341
-0.0031155
-0.0031167
-0.00311701
-0.00311643
-0.00311499
-0.00311268
-0.00310954
-0.00310557
-0.00310081
-0.00309531
-0.00308913
-0.00308236
-0.00307507
-0.00306734
-0.00305927
-0.00305095
-0.00304252
-0.00303408
-0.00302579
-0.00301782
-0.00301037
-0.00300367
-0.00299794
-0.00299342
-0.00299033
-0.0029889
-0.00298913
-0.000148394
-0.000186745
-0.000229972
-0.000273056
-0.000312278
-0.000346936
-0.000376822
-0.000402319
-0.000423837
-0.000442175
-0.000457842
-0.0004714
-0.000483302
-0.000493802
-0.000503228
-0.000511903
-0.000520118
-0.00052803
-0.000535749
-0.000543406
-0.000551166
-0.000559108
-0.000567351
-0.000575987
-0.000585097
-0.000594677
-0.00060474
-0.000615398
-0.000626666
-0.000638524
-0.000650992
-0.000664155
-0.00067804
-0.000692599
-0.000707793
-0.000723677
-0.0007403
-0.000757637
-0.00077561
-0.000794228
-0.000813544
-0.000833575
-0.00085425
-0.000875522
-0.000897395
-0.000919916
-0.000943077
-0.000966824
-0.000991089
-0.00101588
-0.00104124
-0.00106719
-0.00109365
-0.00112055
-0.00114788
-0.00117568
-0.00120396
-0.0012327
-0.00126181
-0.00129125
-0.00132103
-0.0013512
-0.00138175
-0.0014126
-0.0014437
-0.00147502
-0.00150657
-0.00153839
-0.00157046
-0.00160274
-0.00163512
-0.00166759
-0.00170019
-0.00173293
-0.0017658
-0.00179875
-0.00183172
-0.00186466
-0.00189756
-0.00193045
-0.00196335
-0.00199623
-0.00202901
-0.00206165
-0.00209414
-0.00212646
-0.00215864
-0.00219068
-0.00222254
-0.00225417
-0.0022855
-0.00231652
-0.00234725
-0.00237769
-0.00240783
-0.00243763
-0.00246706
-0.00249605
-0.00252459
-0.00255265
-0.00258025
-0.0026074
-0.00263406
-0.00266019
-0.00268574
-0.00271069
-0.00273501
-0.00275869
-0.00278173
-0.00280413
-0.00282587
-0.00284692
-0.00286721
-0.00288672
-0.00290543
-0.00292336
-0.00294049
-0.00295682
-0.00297236
-0.00298708
-0.00300093
-0.0030139
-0.00302597
-0.00303716
-0.00304746
-0.0030569
-0.00306547
-0.00307318
-0.00308
-0.00308594
-0.00309095
-0.00309505
-0.00309825
-0.00310056
-0.00310201
-0.0031026
-0.00310236
-0.00310129
-0.0030994
-0.0030967
-0.00309322
-0.00308898
-0.00308405
-0.0030785
-0.00307239
-0.0030658
-0.0030588
-0.0030515
-0.00304399
-0.00303637
-0.00302876
-0.00302128
-0.0030141
-0.00300739
-0.00300134
-0.00299614
-0.00299198
-0.00298904
-0.0029876
-0.00298775
-0.0002342
-0.00025621
-0.000283892
-0.00031434
-0.000344375
-0.000372388
-0.000397614
-0.000419839
-0.000439284
-0.00045609
-0.000470735
-0.000483678
-0.000495187
-0.000505557
-0.000515041
-0.000523812
-0.000532142
-0.000540254
-0.000548221
-0.000556159
-0.000564198
-0.000572405
-0.000580873
-0.000589726
-0.000599001
-0.000608703
-0.000618928
-0.00062973
-0.000641093
-0.000653003
-0.000665526
-0.000678734
-0.000692612
-0.000707115
-0.000722252
-0.000738096
-0.000754657
-0.000771862
-0.000789682
-0.000808147
-0.000827344
-0.000847202
-0.000867661
-0.000888701
-0.000910351
-0.000932668
-0.000955596
-0.000979067
-0.00100303
-0.00102754
-0.00105264
-0.00107829
-0.00110442
-0.00113097
-0.00115796
-0.00118543
-0.00121339
-0.00124178
-0.00127051
-0.00129956
-0.00132899
-0.0013588
-0.00138898
-0.00141945
-0.00145015
-0.00148106
-0.00151221
-0.00154364
-0.00157533
-0.00160719
-0.00163916
-0.00167123
-0.00170342
-0.00173576
-0.00176822
-0.00180076
-0.0018333
-0.00186581
-0.00189829
-0.00193078
-0.00196329
-0.00199575
-0.0020281
-0.00206031
-0.00209237
-0.00212428
-0.00215606
-0.0021877
-0.00221916
-0.00225036
-0.00228127
-0.00231188
-0.00234221
-0.00237226
-0.00240201
-0.00243143
-0.00246047
-0.00248907
-0.00251721
-0.0025449
-0.00257215
-0.00259895
-0.00262527
-0.00265106
-0.00267628
-0.00270089
-0.00272488
-0.00274825
-0.002771
-0.00279313
-0.00281461
-0.00283539
-0.00285542
-0.00287469
-0.00289318
-0.00291089
-0.00292783
-0.00294399
-0.00295938
-0.00297395
-0.00298768
-0.00300053
-0.0030125
-0.00302362
-0.00303388
-0.0030433
-0.00305187
-0.0030596
-0.00306648
-0.00307248
-0.00307759
-0.00308182
-0.00308517
-0.00308767
-0.00308934
-0.00309019
-0.00309023
-0.00308948
-0.00308794
-0.00308563
-0.00308255
-0.00307876
-0.00307431
-0.00306926
-0.00306369
-0.00305767
-0.00305126
-0.00304457
-0.00303767
-0.00303067
-0.00302366
-0.00301677
-0.00301014
-0.00300391
-0.00299825
-0.00299332
-0.0029893
-0.00298634
-0.0029847
-0.00298448
-0.000303534
-0.000317109
-0.000335262
-0.000356481
-0.000378764
-0.000400626
-0.000421128
-0.000439925
-0.00045686
-0.00047196
-0.000485436
-0.000497457
-0.000508392
-0.000518446
-0.000527736
-0.000536488
-0.000544832
-0.000552968
-0.000561021
-0.000569102
-0.00057729
-0.000585656
-0.000594314
-0.000603328
-0.00061271
-0.000622513
-0.000632849
-0.000643727
-0.000655121
-0.000667076
-0.00067966
-0.000692887
-0.000706727
-0.000721156
-0.000736261
-0.000752063
-0.000768528
-0.000785596
-0.000803274
-0.000821633
-0.000840685
-0.000860356
-0.000880603
-0.000901429
-0.000922895
-0.000944999
-0.000967679
-0.00099086
-0.00101456
-0.00103883
-0.00106367
-0.00108902
-0.00111482
-0.00114104
-0.00116773
-0.0011949
-0.00122254
-0.00125057
-0.00127892
-0.00130763
-0.00133672
-0.00136619
-0.001396
-0.00142608
-0.00145639
-0.00148692
-0.00151773
-0.0015488
-0.00158009
-0.00161153
-0.00164309
-0.00167478
-0.00170661
-0.00173857
-0.00177064
-0.00180277
-0.00183488
-0.00186697
-0.00189907
-0.00193119
-0.00196331
-0.00199536
-0.0020273
-0.0020591
-0.00209075
-0.00212226
-0.00215366
-0.00218491
-0.00221597
-0.00224676
-0.00227726
-0.00230748
-0.00233743
-0.00236711
-0.00239649
-0.00242554
-0.0024542
-0.00248242
-0.00251019
-0.00253753
-0.00256444
-0.00259091
-0.0026169
-0.00264236
-0.00266725
-0.00269155
-0.00271524
-0.00273832
-0.0027608
-0.00278268
-0.0028039
-0.00282442
-0.00284422
-0.00286326
-0.00288154
-0.00289906
-0.00291583
-0.00293184
-0.00294709
-0.00296153
-0.00297513
-0.00298788
-0.00299978
-0.00301083
-0.00302106
-0.00303046
-0.00303904
-0.00304681
-0.00305374
-0.00305981
-0.00306501
-0.00306936
-0.00307287
-0.00307556
-0.00307744
-0.00307852
-0.00307884
-0.00307838
-0.00307717
-0.0030752
-0.0030725
-0.00306912
-0.0030651
-0.00306052
-0.00305543
-0.0030499
-0.00304401
-0.00303784
-0.00303146
-0.00302497
-0.00301845
-0.00301201
-0.00300579
-0.0029999
-0.00299448
-0.00298969
-0.00298565
-0.00298253
-0.00298049
-0.00297959
-0.000362478
-0.000370369
-0.000382127
-0.00039668
-0.000412852
-0.000429547
-0.000445839
-0.000461317
-0.000475742
-0.000489054
-0.000501198
-0.000512298
-0.000522506
-0.000532064
-0.000541058
-0.000549618
-0.000557898
-0.000566008
-0.00057407
-0.000582183
-0.000590408
-0.000598862
-0.000607623
-0.000616699
-0.000626148
-0.000636058
-0.000646475
-0.000657367
-0.000668768
-0.000680753
-0.000693366
-0.000706573
-0.000720347
-0.000734737
-0.000749801
-0.00076554
-0.000781871
-0.000798803
-0.000816376
-0.000834631
-0.000853519
-0.000872996
-0.000893038
-0.000913683
-0.000934986
-0.000956869
-0.000979286
-0.0010022
-0.00102566
-0.0010497
-0.00107428
-0.00109933
-0.00112481
-0.00115074
-0.00117714
-0.00120404
-0.00123136
-0.00125902
-0.00128703
-0.00131542
-0.0013442
-0.00137335
-0.00140279
-0.00143249
-0.00146241
-0.0014926
-0.00152308
-0.00155382
-0.00158474
-0.00161578
-0.00164694
-0.00167825
-0.00170972
-0.00174134
-0.00177304
-0.00180477
-0.00183647
-0.00186817
-0.0018999
-0.00193166
-0.0019634
-0.00199506
-0.00202661
-0.002058
-0.00208926
-0.00212041
-0.00215145
-0.00218233
-0.00221299
-0.00224338
-0.0022735
-0.00230336
-0.00233295
-0.00236227
-0.0023913
-0.00241999
-0.00244827
-0.00247613
-0.00250355
-0.00253057
-0.00255717
-0.00258332
-0.00260899
-0.00263414
-0.00265873
-0.00268273
-0.00270613
-0.00272895
-0.00275119
-0.00277282
-0.0027938
-0.00281409
-0.00283367
-0.0028525
-0.00287059
-0.00288794
-0.00290455
-0.00292043
-0.00293554
-0.00294986
-0.00296335
-0.00297601
-0.00298784
-0.00299885
-0.00300905
-0.00301844
-0.00302704
-0.00303484
-0.00304182
-0.00304796
-0.00305326
-0.00305773
-0.00306139
-0.00306425
-0.00306632
-0.00306764
-0.00306821
-0.00306803
-0.00306711
-0.00306545
-0.0030631
-0.00306008
-0.00305645
-0.00305228
-0.0030476
-0.00304251
-0.00303706
-0.00303133
-0.00302539
-0.0030193
-0.00301317
-0.00300707
-0.00300113
-0.00299545
-0.00299015
-0.00298536
-0.00298119
-0.00297777
-0.00297518
-0.00297338
-0.000413562
-0.00041736
-0.000424642
-0.000434332
-0.000445685
-0.000458034
-0.000470761
-0.000483284
-0.000495344
-0.000506804
-0.0005176
-0.000527688
-0.000537151
-0.000546112
-0.000554702
-0.000562983
-0.000571058
-0.000579063
-0.000587071
-0.000595146
-0.000603379
-0.000611858
-0.000620633
-0.00062972
-0.000639215
-0.000649175
-0.000659609
-0.000670496
-0.000681906
-0.000693917
-0.000706511
-0.000719658
-0.000733375
-0.000747738
-0.000762764
-0.000778389
-0.000794592
-0.000811408
-0.000828892
-0.000847026
-0.00086574
-0.000885026
-0.000904885
-0.000925382
-0.000946505
-0.000968166
-0.000990322
-0.00101301
-0.00103625
-0.00106007
-0.00108439
-0.00110915
-0.00113434
-0.00115999
-0.00118615
-0.00121276
-0.00123976
-0.00126709
-0.00129478
-0.00132287
-0.00135135
-0.00138019
-0.0014093
-0.00143863
-0.00146821
-0.00149807
-0.00152823
-0.00155863
-0.00158919
-0.00161987
-0.00165068
-0.00168164
-0.00171277
-0.00174404
-0.00177538
-0.00180672
-0.00183805
-0.0018694
-0.00190079
-0.00193219
-0.00196356
-0.00199485
-0.00202601
-0.00205703
-0.00208794
-0.00211874
-0.00214944
-0.00217995
-0.00221024
-0.00224026
-0.00227002
-0.00229952
-0.00232878
-0.00235777
-0.00238647
-0.00241481
-0.00244274
-0.00247026
-0.00249736
-0.00252407
-0.00255037
-0.00257622
-0.0026016
-0.00262646
-0.00265076
-0.00267448
-0.00269763
-0.00272021
-0.00274222
-0.00276363
-0.00278439
-0.00280446
-0.00282384
-0.00284248
-0.00286039
-0.00287759
-0.00289407
-0.00290982
-0.00292481
-0.00293902
-0.00295241
-0.002965
-0.00297678
-0.00298774
-0.00299792
-0.00300732
-0.00301594
-0.00302378
-0.0030308
-0.00303701
-0.0030424
-0.00304699
-0.00305079
-0.00305381
-0.00305607
-0.0030576
-0.0030584
-0.00305847
-0.00305781
-0.00305644
-0.00305439
-0.0030517
-0.00304842
-0.00304459
-0.00304028
-0.00303555
-0.00303047
-0.0030251
-0.0030195
-0.00301373
-0.00300788
-0.00300202
-0.00299626
-0.00299067
-0.00298537
-0.00298045
-0.00297604
-0.00297223
-0.00296898
-0.00296615
-0.000458552
-0.000459235
-0.000463218
-0.000469341
-0.000476991
-0.000485815
-0.000495437
-0.000505331
-0.000515222
-0.000524957
-0.000534363
-0.000543374
-0.000552056
-0.000560381
-0.000568478
-0.000576404
-0.000584227
-0.000592034
-0.000599896
-0.000607882
-0.000616083
-0.000624538
-0.000633267
-0.000642349
-0.000651858
-0.000661812
-0.000672215
-0.000683089
-0.000694519
-0.000706514
-0.000719059
-0.000732131
-0.000745815
-0.000760147
-0.000775095
-0.000790599
-0.000806692
-0.000823417
-0.000840804
-0.000858795
-0.000877336
-0.000896447
-0.000916159
-0.000936513
-0.000957434
-0.000978868
-0.0010008
-0.00102329
-0.00104634
-0.00106992
-0.00109398
-0.00111846
-0.00114339
-0.00116881
-0.00119472
-0.00122105
-0.00124774
-0.00127477
-0.00130218
-0.00132999
-0.00135819
-0.0013867
-0.00141548
-0.00144449
-0.00147377
-0.00150334
-0.00153318
-0.00156323
-0.00159344
-0.00162378
-0.00165427
-0.00168492
-0.00171573
-0.00174667
-0.00177764
-0.00180862
-0.0018396
-0.00187063
-0.00190169
-0.00193276
-0.00196379
-0.00199471
-0.00202551
-0.00205618
-0.00208676
-0.00211725
-0.0021476
-0.00217777
-0.0022077
-0.00223738
-0.00226681
-0.00229598
-0.00232492
-0.0023536
-0.00238198
-0.00240998
-0.00243759
-0.00246479
-0.00249161
-0.00251803
-0.00254404
-0.00256962
-0.00259473
-0.00261931
-0.00264334
-0.00266681
-0.00268973
-0.00271209
-0.00273389
-0.00275508
-0.00277564
-0.00279552
-0.00281471
-0.00283318
-0.00285094
-0.00286799
-0.00288435
-0.00289999
-0.00291488
-0.00292898
-0.0029423
-0.00295482
-0.00296655
-0.00297748
-0.00298765
-0.00299706
-0.0030057
-0.00301357
-0.00302065
-0.00302693
-0.00303241
-0.00303711
-0.00304104
-0.00304421
-0.00304665
-0.00304837
-0.00304938
-0.00304967
-0.00304926
-0.00304814
-0.00304637
-0.00304396
-0.00304097
-0.00303744
-0.00303344
-0.00302902
-0.00302424
-0.00301915
-0.00301381
-0.00300827
-0.00300261
-0.00299691
-0.00299122
-0.00298564
-0.00298023
-0.00297511
-0.00297037
-0.00296608
-0.00296209
-0.00295819
-0.000498858
-0.000497103
-0.000498471
-0.000501922
-0.000506696
-0.000512698
-0.000519668
-0.000527283
-0.000535182
-0.000543251
-0.000551317
-0.000559254
-0.000567047
-0.000574726
-0.000582279
-0.000589787
-0.000597294
-0.00060486
-0.000612518
-0.000620379
-0.000628472
-0.000636834
-0.000645507
-0.000654563
-0.000664051
-0.000673948
-0.000684305
-0.000695168
-0.000706583
-0.000718534
-0.000731001
-0.000744028
-0.000757681
-0.000771954
-0.000786789
-0.000802186
-0.000818194
-0.000834837
-0.000852109
-0.000869943
-0.00088832
-0.000907284
-0.000926883
-0.000947066
-0.000967781
-0.000988997
-0.00101074
-0.00103305
-0.00105592
-0.00107927
-0.00110307
-0.0011273
-0.001152
-0.00117721
-0.00120287
-0.00122891
-0.00125531
-0.00128208
-0.00130924
-0.0013368
-0.00136471
-0.00139291
-0.00142136
-0.00145007
-0.00147908
-0.00150839
-0.00153793
-0.00156765
-0.00159752
-0.00162754
-0.00165772
-0.00168808
-0.0017186
-0.00174921
-0.00177983
-0.00181047
-0.00184114
-0.00187186
-0.00190262
-0.00193336
-0.00196406
-0.00199464
-0.0020251
-0.00205545
-0.00208573
-0.00211591
-0.00214594
-0.00217577
-0.00220538
-0.00223473
-0.00226385
-0.00229273
-0.00232137
-0.00234976
-0.00237782
-0.00240551
-0.00243282
-0.00245974
-0.00248628
-0.00251243
-0.00253819
-0.00256351
-0.00258835
-0.00261268
-0.00263646
-0.0026597
-0.00268241
-0.00270457
-0.00272617
-0.00274717
-0.00276754
-0.00278725
-0.00280626
-0.00282457
-0.0028422
-0.00285914
-0.00287539
-0.00289092
-0.00290571
-0.00291973
-0.00293298
-0.00294544
-0.00295713
-0.00296804
-0.0029782
-0.00298763
-0.0029963
-0.0030042
-0.00301133
-0.00301768
-0.00302325
-0.00302806
-0.00303211
-0.00303542
-0.00303803
-0.00303993
-0.00304113
-0.00304162
-0.00304142
-0.00304053
-0.00303899
-0.00303683
-0.00303409
-0.00303082
-0.00302708
-0.00302291
-0.00301837
-0.0030135
-0.00300834
-0.00300296
-0.00299742
-0.00299178
-0.0029861
-0.00298043
-0.00297486
-0.00296946
-0.00296432
-0.0029595
-0.00295473
-0.00294972
-0.000535645
-0.000531819
-0.000531027
-0.000532335
-0.000534855
-0.00053854
-0.000543317
-0.000548928
-0.000555063
-0.000561568
-0.000568326
-0.000575226
-0.000582109
-0.000589051
-0.000596035
-0.000603081
-0.00061022
-0.000617473
-0.000624902
-0.000632585
-0.000640518
-0.000648746
-0.000657337
-0.000666338
-0.000675743
-0.000685572
-0.000695879
-0.000706727
-0.000718087
-0.00072996
-0.000742356
-0.000755357
-0.000768961
-0.000783139
-0.000797863
-0.000813169
-0.000829104
-0.000845657
-0.000862792
-0.00088047
-0.000898709
-0.000917562
-0.000937034
-0.000957036
-0.000977555
-0.000998582
-0.00102016
-0.0010423
-0.00106497
-0.0010881
-0.00111165
-0.00113567
-0.00116018
-0.00118518
-0.00121058
-0.00123635
-0.00126249
-0.00128901
-0.00131594
-0.00134327
-0.00137091
-0.00139881
-0.00142696
-0.00145541
-0.00148416
-0.0015132
-0.00154245
-0.00157187
-0.00160143
-0.00163115
-0.00166105
-0.00169114
-0.00172137
-0.00175165
-0.00178195
-0.00181228
-0.00184267
-0.0018731
-0.00190355
-0.001934
-0.00196437
-0.00199462
-0.00202477
-0.00205484
-0.00208483
-0.00211472
-0.00214444
-0.00217396
-0.00220325
-0.00223231
-0.00226114
-0.00228974
-0.00231812
-0.00234622
-0.00237399
-0.00240139
-0.00242842
-0.00245508
-0.00248137
-0.00250728
-0.00253279
-0.00255787
-0.00258247
-0.00260655
-0.00263011
-0.00265314
-0.00267566
-0.00269764
-0.00271905
-0.00273988
-0.00276008
-0.00277962
-0.00279848
-0.00281665
-0.00283416
-0.00285099
-0.00286714
-0.00288258
-0.00289728
-0.00291124
-0.00292443
-0.00293684
-0.00294849
-0.0029594
-0.00296956
-0.002979
-0.0029877
-0.00299564
-0.00300282
-0.00300924
-0.0030149
-0.00301981
-0.00302397
-0.00302742
-0.00303018
-0.00303224
-0.00303361
-0.00303429
-0.00303427
-0.00303359
-0.00303226
-0.00303032
-0.00302779
-0.00302473
-0.00302119
-0.00301722
-0.00301287
-0.00300815
-0.00300313
-0.00299785
-0.00299236
-0.00298671
-0.00298096
-0.00297515
-0.00296936
-0.00296363
-0.00295804
-0.00295264
-0.00294708
-0.00294097
-0.000569538
-0.000563939
-0.000561392
-0.000560883
-0.000561553
-0.000563334
-0.000566271
-0.000570123
-0.000574652
-0.00057976
-0.000585281
-0.000591092
-0.000597139
-0.000603312
-0.000609678
-0.000616208
-0.00062291
-0.000629834
-0.000637003
-0.000644452
-0.000652186
-0.000660271
-0.000668744
-0.000677639
-0.000686939
-0.000696682
-0.000706941
-0.000717726
-0.000729004
-0.00074079
-0.000753142
-0.000766099
-0.000779619
-0.000793693
-0.000808325
-0.000823558
-0.000839417
-0.000855864
-0.000872849
-0.000890391
-0.000908525
-0.000927272
-0.000946586
-0.000966418
-0.000986758
-0.00100763
-0.00102906
-0.00105104
-0.0010735
-0.0010964
-0.00111975
-0.00114359
-0.00116792
-0.0011927
-0.00121786
-0.00124339
-0.00126929
-0.00129559
-0.00132231
-0.00134939
-0.00137676
-0.00140439
-0.00143229
-0.0014605
-0.00148901
-0.00151777
-0.00154674
-0.00157587
-0.00160515
-0.00163461
-0.00166427
-0.00169409
-0.00172402
-0.00175399
-0.001784
-0.00181406
-0.00184417
-0.00187433
-0.00190451
-0.00193465
-0.00196471
-0.00199467
-0.00202454
-0.00205434
-0.00208407
-0.00211367
-0.0021431
-0.00217233
-0.00220133
-0.00223011
-0.00225868
-0.00228704
-0.00231516
-0.00234299
-0.00237048
-0.00239762
-0.0024244
-0.00245082
-0.00247688
-0.00250256
-0.00252785
-0.00255271
-0.00257708
-0.00260094
-0.0026243
-0.00264714
-0.00266948
-0.00269128
-0.00271253
-0.0027332
-0.00275324
-0.00277263
-0.00279135
-0.00280941
-0.00282681
-0.00284355
-0.00285961
-0.00287496
-0.0028896
-0.00290349
-0.00291663
-0.002929
-0.00294063
-0.00295153
-0.00296171
-0.00297117
-0.00297989
-0.00298787
-0.00299511
-0.0030016
-0.00300734
-0.00301234
-0.00301662
-0.0030202
-0.0030231
-0.00302531
-0.00302683
-0.00302766
-0.00302782
-0.00302732
-0.00302617
-0.0030244
-0.00302205
-0.00301917
-0.0030158
-0.00301199
-0.00300776
-0.00300315
-0.00299821
-0.00299298
-0.00298748
-0.00298177
-0.00297589
-0.00296989
-0.00296382
-0.00295772
-0.00295165
-0.00294567
-0.00293931
-0.00293212
-0.000600786
-0.000593837
-0.000589808
-0.000587776
-0.000586881
-0.000587075
-0.000588397
-0.000590709
-0.000593843
-0.000597626
-0.000601991
-0.000606777
-0.000611933
-0.000617386
-0.000623114
-0.000629106
-0.000635352
-0.000641905
-0.000648764
-0.000655936
-0.00066345
-0.00067136
-0.000679692
-0.000688438
-0.000697616
-0.000707272
-0.000717461
-0.000728149
-0.000739329
-0.000751044
-0.000763351
-0.000776229
-0.00078965
-0.000803623
-0.000818174
-0.000833341
-0.00084911
-0.000865431
-0.000882284
-0.00089972
-0.000917765
-0.000936389
-0.00095554
-0.000975213
-0.000995397
-0.00101614
-0.00103744
-0.00105924
-0.0010815
-0.0011042
-0.00112738
-0.00115105
-0.0011752
-0.00119976
-0.0012247
-0.00125001
-0.00127572
-0.00130183
-0.00132833
-0.00135516
-0.00138228
-0.00140966
-0.00143735
-0.00146534
-0.00149361
-0.00152212
-0.00155082
-0.00157968
-0.0016087
-0.00163793
-0.00166735
-0.00169691
-0.00172655
-0.00175625
-0.00178599
-0.00181579
-0.00184565
-0.00187555
-0.00190547
-0.00193532
-0.0019651
-0.00199478
-0.0020244
-0.00205395
-0.00208342
-0.00211275
-0.00214192
-0.00217088
-0.00219962
-0.00222815
-0.00225648
-0.0022846
-0.00231248
-0.00234005
-0.0023673
-0.0023942
-0.00242075
-0.00244695
-0.0024728
-0.00249828
-0.00252337
-0.00254801
-0.00257217
-0.00259584
-0.00261901
-0.00264168
-0.00266385
-0.0026855
-0.0027066
-0.00272712
-0.00274702
-0.00276627
-0.00278487
-0.00280283
-0.00282014
-0.00283679
-0.00285277
-0.00286806
-0.00288263
-0.00289647
-0.00290957
-0.00292191
-0.00293353
-0.00294443
-0.00295462
-0.0029641
-0.00297286
-0.00298089
-0.00298818
-0.00299474
-0.00300055
-0.00300564
-0.00301004
-0.00301374
-0.00301677
-0.00301911
-0.00302078
-0.00302176
-0.00302207
-0.00302172
-0.00302072
-0.0030191
-0.0030169
-0.00301417
-0.00301093
-0.00300723
-0.00300309
-0.00299854
-0.00299363
-0.00298839
-0.00298284
-0.00297702
-0.00297097
-0.00296474
-0.00295837
-0.00295186
-0.00294529
-0.00293871
-0.00293156
-0.00292334
-0.000629933
-0.000621712
-0.000616401
-0.000613098
-0.000610903
-0.000609705
-0.000609617
-0.00061061
-0.000612477
-0.000615073
-0.000618332
-0.000622168
-0.000626469
-0.000631188
-0.000636276
-0.0006417
-0.000647493
-0.000653646
-0.000660151
-0.000667034
-0.000674305
-0.000682017
-0.000690158
-0.000698738
-0.000707787
-0.000717352
-0.000727424
-0.000737991
-0.000749079
-0.000760732
-0.000772965
-0.000785746
-0.000799071
-0.00081295
-0.000827433
-0.000842525
-0.000858178
-0.000874373
-0.000891125
-0.000908472
-0.00092642
-0.000944909
-0.000963917
-0.000983439
-0.0010035
-0.00102412
-0.00104528
-0.00106691
-0.00108898
-0.00111153
-0.00113456
-0.00115807
-0.00118203
-0.00120638
-0.00123111
-0.00125623
-0.00128177
-0.00130771
-0.001334
-0.0013606
-0.00138747
-0.00141465
-0.00144213
-0.00146992
-0.00149797
-0.00152623
-0.00155468
-0.00158329
-0.0016121
-0.00164111
-0.0016703
-0.0016996
-0.00172899
-0.00175843
-0.00178792
-0.00181748
-0.00184711
-0.00187677
-0.00190643
-0.00193602
-0.00196553
-0.00199497
-0.00202435
-0.00205367
-0.0020829
-0.00211198
-0.0021409
-0.00216961
-0.0021981
-0.00222641
-0.00225453
-0.00228243
-0.00231007
-0.00233742
-0.00236444
-0.00239113
-0.00241747
-0.00244348
-0.00246914
-0.00249443
-0.00251933
-0.00254377
-0.00256774
-0.00259124
-0.00261424
-0.00263676
-0.00265878
-0.00268028
-0.00270125
-0.00272163
-0.0027414
-0.00276053
-0.00277903
-0.00279689
-0.00281412
-0.0028307
-0.00284662
-0.00286185
-0.00287637
-0.00289017
-0.00290323
-0.00291556
-0.00292717
-0.00293808
-0.0029483
-0.0029578
-0.0029666
-0.00297467
-0.00298202
-0.00298864
-0.00299453
-0.00299972
-0.00300421
-0.00300803
-0.00301118
-0.00301365
-0.00301544
-0.00301656
-0.003017
-0.00301678
-0.00301591
-0.00301442
-0.00301234
-0.00300972
-0.00300658
-0.00300295
-0.00299887
-0.00299435
-0.00298943
-0.00298414
-0.00297849
-0.00297253
-0.00296628
-0.00295979
-0.00295308
-0.00294615
-0.00293907
-0.00293189
-0.00292398
-0.00291475
-0.000657183
-0.00064784
-0.000641396
-0.000636976
-0.000633602
-0.000631238
-0.000629964
-0.000629739
-0.000630467
-0.000632014
-0.000634248
-0.000637173
-0.000640655
-0.000644631
-0.000649077
-0.000653963
-0.000659285
-0.00066502
-0.000671151
-0.000677729
-0.000684747
-0.000692236
-0.000700155
-0.000708555
-0.000717475
-0.000726917
-0.000736846
-0.000747293
-0.000758287
-0.00076986
-0.000781993
-0.00079467
-0.000807897
-0.000821698
-0.000836118
-0.00085111
-0.000866639
-0.000882731
-0.000899401
-0.000916658
-0.000934494
-0.000952852
-0.000971731
-0.000991129
-0.00101109
-0.00103159
-0.00105259
-0.00107405
-0.00109597
-0.00111838
-0.00114128
-0.00116464
-0.00118842
-0.00121258
-0.00123713
-0.00126208
-0.00128746
-0.00131323
-0.00133932
-0.0013657
-0.00139237
-0.00141936
-0.00144665
-0.00147424
-0.00150208
-0.00153012
-0.00155833
-0.00158673
-0.00161534
-0.00164415
-0.00167311
-0.00170218
-0.00173132
-0.00176053
-0.0017898
-0.00181914
-0.00184855
-0.00187798
-0.00190739
-0.00193673
-0.00196601
-0.00199523
-0.0020244
-0.0020535
-0.0020825
-0.00211136
-0.00214004
-0.00216851
-0.0021968
-0.0022249
-0.00225282
-0.00228052
-0.00230795
-0.00233509
-0.00236191
-0.0023884
-0.00241456
-0.00244038
-0.00246587
-0.002491
-0.00251571
-0.00253998
-0.00256379
-0.00258712
-0.00260998
-0.00263235
-0.00265424
-0.00267562
-0.00269646
-0.00271671
-0.00273636
-0.00275539
-0.0027738
-0.00279159
-0.00280875
-0.00282527
-0.00284112
-0.00285631
-0.00287079
-0.00288455
-0.00289759
-0.00290991
-0.00292154
-0.00293246
-0.0029427
-0.00295224
-0.00296107
-0.0029692
-0.00297661
-0.00298329
-0.00298926
-0.00299454
-0.00299914
-0.00300306
-0.00300632
-0.0030089
-0.00301081
-0.00301205
-0.00301261
-0.00301251
-0.00301174
-0.00301035
-0.00300837
-0.00300583
-0.00300277
-0.00299919
-0.00299513
-0.0029906
-0.00298565
-0.00298027
-0.0029745
-0.00296837
-0.0029619
-0.00295512
-0.00294805
-0.00294069
-0.0029331
-0.00292533
-0.00291666
-0.00290647
-0.000682735
-0.000672385
-0.0006649
-0.000659434
-0.000655033
-0.000651658
-0.000649309
-0.00064801
-0.000647696
-0.000648263
-0.000649612
-0.000651664
-0.00065438
-0.00065765
-0.000661475
-0.000665823
-0.000670658
-0.000675951
-0.000681717
-0.000687982
-0.000694741
-0.000701956
-0.000709652
-0.000717876
-0.000726644
-0.000735921
-0.000745709
-0.000756042
-0.000766938
-0.000778416
-0.000790433
-0.000802998
-0.000816135
-0.000829869
-0.000844202
-0.000859084
-0.000874506
-0.000890512
-0.000907102
-0.000924267
-0.000941983
-0.000960221
-0.000978977
-0.000998285
-0.00101815
-0.00103853
-0.00105939
-0.0010807
-0.00110249
-0.00112477
-0.00114754
-0.00117075
-0.00119437
-0.00121836
-0.00124276
-0.00126757
-0.00129279
-0.00131838
-0.00134428
-0.00137048
-0.00139699
-0.0014238
-0.00145092
-0.00147832
-0.00150596
-0.00153378
-0.00156179
-0.00159001
-0.00161844
-0.00164705
-0.00167579
-0.00170464
-0.00173357
-0.00176256
-0.00179162
-0.00182077
-0.00184997
-0.00187918
-0.00190836
-0.00193748
-0.00196655
-0.00199557
-0.00202454
-0.00205343
-0.00208223
-0.00211087
-0.00213933
-0.00216761
-0.0021957
-0.00222363
-0.00225136
-0.00227887
-0.00230611
-0.00233306
-0.0023597
-0.00238601
-0.002412
-0.00243767
-0.00246301
-0.00248797
-0.00251252
-0.00253663
-0.00256029
-0.00258349
-0.00260621
-0.00262846
-0.00265023
-0.0026715
-0.00269222
-0.00271236
-0.00273191
-0.00275085
-0.00276918
-0.00278691
-0.002804
-0.00282047
-0.00283629
-0.00285144
-0.00286588
-0.00287962
-0.00289265
-0.00290498
-0.00291661
-0.00292756
-0.00293783
-0.0029474
-0.00295629
-0.00296447
-0.00297193
-0.00297868
-0.00298473
-0.00299009
-0.00299479
-0.00299882
-0.00300218
-0.00300487
-0.00300688
-0.00300823
-0.00300889
-0.00300888
-0.00300821
-0.00300692
-0.00300501
-0.00300253
-0.00299951
-0.00299595
-0.00299189
-0.00298734
-0.00298232
-0.00297684
-0.00297092
-0.0029646
-0.00295788
-0.0029508
-0.00294335
-0.00293556
-0.00292746
-0.00291911
-0.00290972
-0.0028986
-0.0007067
-0.000695348
-0.000686938
-0.000680541
-0.000675187
-0.000670877
-0.000667602
-0.000665351