/*--------------------------------*- C++ -*----------------------------------*\
  =========                 |
  \\      /  F ield         | OpenFOAM: The Open Source CFD Toolbox
   \\    /   O peration     | Website:  https://openfoam.org
    \\  /    A nd           | Version:  7
     \\/     M anipulation  |
\*---------------------------------------------------------------------------*/
FoamFile
{
    version     2.0;
    format      ascii;
    class       surfaceScalarField;
    location    "0.2";
    object      phi;
}
// * * * * * * * * * * * * * * * * * * * * * * * * * * * * * * * * * * * * * //

dimensions      [0 3 -1 0 0 0 0];

internalField   nonuniform List<scalar> 
101920
(
-8.47229e-13
8.38496e-13
-8.99631e-13
5.30451e-14
-1.53559e-12
6.34789e-13
-1.86164e-12
3.27371e-13
-2.08424e-12
2.23988e-13
-2.19151e-12
1.05485e-13
-2.14961e-12
-3.87551e-14
-1.9191e-12
-2.35997e-13
-1.47219e-12
-4.46682e-13
-7.91196e-13
-6.83778e-13
1.35113e-13
-9.2665e-13
1.3082e-12
-1.17498e-12
2.71965e-12
-1.41212e-12
4.35469e-12
-1.6362e-12
6.20251e-12
-1.84847e-12
8.24265e-12
-2.03986e-12
1.04591e-11
-2.21719e-12
1.28395e-11
-2.38056e-12
1.53693e-11
-2.52822e-12
1.80262e-11
-2.65855e-12
2.0801e-11
-2.77473e-12
2.36775e-11
-2.87797e-12
2.6644e-11
-2.96571e-12
2.96911e-11
-3.04535e-12
3.28081e-11
-3.11772e-12
3.59846e-11
-3.17598e-12
3.92099e-11
-3.22443e-12
4.24761e-11
-3.26629e-12
4.57772e-11
-3.29875e-12
4.90979e-11
-3.32126e-12
5.24338e-11
-3.33618e-12
5.57817e-11
-3.34587e-12
5.91328e-11
-3.35055e-12
6.24807e-11
-3.34634e-12
6.58177e-11
-3.33584e-12
6.91398e-11
-3.32156e-12
7.24434e-11
-3.30323e-12
7.57204e-11
-3.27852e-12
7.89676e-11
-3.24641e-12
8.21797e-11
-3.21166e-12
8.53533e-11
-3.17511e-12
8.84872e-11
-3.13308e-12
9.15721e-11
-3.08741e-12
9.4607e-11
-3.03573e-12
9.75881e-11
-2.98198e-12
1.00514e-10
-2.9265e-12
1.0338e-10
-2.86808e-12
1.06184e-10
-2.80575e-12
1.08921e-10
-2.73886e-12
1.1159e-10
-2.67101e-12
1.14191e-10
-2.60183e-12
1.16722e-10
-2.5292e-12
1.19178e-10
-2.45493e-12
1.21558e-10
-2.37954e-12
1.23861e-10
-2.30207e-12
1.26086e-10
-2.22368e-12
1.28231e-10
-2.14488e-12
1.30294e-10
-2.06356e-12
1.32273e-10
-1.97941e-12
1.34165e-10
-1.89387e-12
1.3597e-10
-1.80797e-12
1.37689e-10
-1.71995e-12
1.3932e-10
-1.63055e-12
1.4086e-10
-1.54119e-12
1.42311e-10
-1.4518e-12
1.43672e-10
-1.36172e-12
1.44944e-10
-1.2712e-12
1.46126e-10
-1.18035e-12
1.47215e-10
-1.08801e-12
1.4821e-10
-9.94096e-13
1.49108e-10
-9.00381e-13
1.49912e-10
-8.07443e-13
1.50623e-10
-7.13639e-13
1.51242e-10
-6.18528e-13
1.51767e-10
-5.23326e-13
1.52197e-10
-4.28336e-13
1.52531e-10
-3.32999e-13
1.52769e-10
-2.37829e-13
1.52909e-10
-1.43617e-13
1.52956e-10
-4.94333e-14
1.52909e-10
4.6046e-14
1.52767e-10
1.4243e-13
1.5253e-10
2.38237e-13
1.52196e-10
3.33139e-13
1.51769e-10
4.2783e-13
1.51248e-10
5.21907e-13
1.50631e-10
6.15204e-13
1.49922e-10
7.08547e-13
1.4912e-10
8.02384e-13
1.48224e-10
8.96219e-13
1.47234e-10
9.8905e-13
1.46152e-10
1.08094e-12
1.4498e-10
1.17258e-12
1.43718e-10
1.26358e-12
1.42365e-10
1.35332e-12
1.40922e-10
1.44225e-12
1.3939e-10
1.53107e-12
1.3777e-10
1.61973e-12
1.36063e-10
1.70724e-12
1.34269e-10
1.79294e-12
1.32391e-10
1.87752e-12
1.30431e-10
1.9613e-12
1.28387e-10
2.04367e-12
1.26262e-10
2.12441e-12
1.24058e-10
2.20382e-12
1.21776e-10
2.28191e-12
1.19419e-10
2.35809e-12
1.16987e-10
2.43167e-12
1.14484e-10
2.50288e-12
1.11911e-10
2.5725e-12
1.09272e-10
2.64055e-12
1.06566e-10
2.70619e-12
1.03797e-10
2.76871e-12
1.00968e-10
2.82819e-12
9.80838e-11
2.88494e-12
9.5146e-11
2.93861e-12
9.2158e-11
2.98848e-12
8.91234e-11
3.03455e-12
8.60461e-11
3.07737e-12
8.29299e-11
3.11692e-12
7.97781e-11
3.15242e-12
7.65954e-11
3.18302e-12
7.33865e-11
3.20865e-12
7.01571e-11
3.22982e-12
6.69118e-11
3.24625e-12
6.36552e-11
3.25709e-12
6.03929e-11
3.26213e-12
5.71314e-11
3.26158e-12
5.38765e-11
3.25541e-12
5.06342e-11
3.24308e-12
4.7411e-11
3.22361e-12
4.42145e-11
3.19651e-12
4.10525e-11
3.16204e-12
3.79329e-11
3.12034e-12
3.48629e-11
3.0709e-12
3.18504e-11
3.01299e-12
2.89042e-11
2.9462e-12
2.60338e-11
2.8706e-12
2.32484e-11
2.78611e-12
2.0557e-11
2.69206e-12
1.79697e-11
2.58766e-12
1.54973e-11
2.47244e-12
1.31509e-11
2.34647e-12
1.09417e-11
2.20982e-12
8.8802e-12
2.06218e-12
6.97746e-12
1.90305e-12
5.24499e-12
1.73233e-12
3.69463e-12
1.55033e-12
2.33757e-12
1.35749e-12
1.18377e-12
1.15437e-12
2.42207e-13
9.41793e-13
-4.79429e-13
7.21422e-13
-9.75818e-13
4.96233e-13
-1.2468e-12
2.71196e-13
-1.30016e-12
5.39093e-14
-1.15642e-12
-1.4345e-13
-8.56406e-13
-3.0024e-13
-4.73687e-13
-3.82683e-13
-1.34985e-13
-3.38248e-13
-1.34474e-13
-2.52297e-12
3.3621e-12
-4.53744e-12
2.06831e-12
-5.66339e-12
1.7611e-12
-6.59455e-12
1.25597e-12
-7.10943e-12
7.3779e-13
-7.15898e-12
1.55422e-13
-6.65067e-12
-5.50866e-13
-5.52608e-12
-1.3531e-12
-3.73645e-12
-2.23773e-12
-1.26252e-12
-3.15528e-12
1.89573e-12
-4.08305e-12
5.71694e-12
-4.99632e-12
1.01768e-11
-5.8682e-12
1.52302e-11
-6.689e-12
2.0842e-11
-7.45816e-12
2.69667e-11
-8.16441e-12
3.35671e-11
-8.81553e-12
4.05966e-11
-9.41014e-12
4.80144e-11
-9.94638e-12
5.57881e-11
-1.04292e-11
6.38769e-11
-1.08624e-11
7.22453e-11
-1.12456e-11
8.0863e-11
-1.15832e-11
8.97008e-11
-1.18834e-11
9.87276e-11
-1.21432e-11
1.07915e-10
-1.23638e-11
1.17243e-10
-1.25516e-11
1.2668e-10
-1.27059e-11
1.36206e-10
-1.28252e-11
1.45798e-10
-1.2913e-11
1.55436e-10
-1.2974e-11
1.651e-10
-1.3011e-11
1.74772e-10
-1.30229e-11
1.84432e-10
-1.30079e-11
1.94066e-10
-1.29701e-11
2.03657e-10
-1.29129e-11
2.13191e-10
-1.28358e-11
2.22651e-10
-1.27376e-11
2.32026e-10
-1.26212e-11
2.41303e-10
-1.24878e-11
2.5047e-10
-1.2339e-11
2.59514e-10
-1.21751e-11
2.68426e-10
-1.19956e-11
2.77193e-10
-1.18015e-11
2.85809e-10
-1.15948e-11
2.94262e-10
-1.13768e-11
3.02543e-10
-1.1147e-11
3.10648e-10
-1.0904e-11
3.18564e-10
-1.0653e-11
3.26287e-10
-1.03932e-11
3.3381e-10
-1.01239e-11
3.41126e-10
-9.84603e-12
3.48228e-10
-9.55984e-12
3.55114e-10
-9.26566e-12
3.61777e-10
-8.96536e-12
3.68211e-10
-8.65954e-12
3.74413e-10
-8.34678e-12
3.80379e-10
-8.02569e-12
3.86103e-10
-7.69934e-12
3.91581e-10
-7.36944e-12
3.9681e-10
-7.03511e-12
4.01788e-10
-6.69547e-12
4.06509e-10
-6.35183e-12
4.10973e-10
-6.00532e-12
4.15179e-10
-5.65656e-12
4.19124e-10
-5.30702e-12
4.22805e-10
-4.95602e-12
4.2622e-10
-4.59992e-12
4.2937e-10
-4.23705e-12
4.3225e-10
-3.87073e-12
4.34858e-10
-3.5048e-12
4.37195e-10
-3.14028e-12
4.39259e-10
-2.77637e-12
4.41048e-10
-2.41145e-12
4.42563e-10
-2.04351e-12
4.43804e-10
-1.67152e-12
4.44771e-10
-1.29754e-12
4.4546e-10
-9.24997e-13
4.45872e-10
-5.54698e-13
4.46009e-10
-1.84895e-13
4.4587e-10
1.85481e-13
4.45453e-10
5.56171e-13
4.44761e-10
9.2744e-13
4.43795e-10
1.29903e-12
4.42554e-10
1.66966e-12
4.41039e-10
2.03793e-12
4.39249e-10
2.40425e-12
4.37188e-10
2.77033e-12
4.34856e-10
3.13568e-12
4.32254e-10
3.49895e-12
4.29382e-10
3.85984e-12
4.26244e-10
4.21878e-12
4.2284e-10
4.57569e-12
4.19173e-10
4.92989e-12
4.15244e-10
5.28113e-12
4.11055e-10
5.63022e-12
4.06611e-10
5.97688e-12
4.01912e-10
6.31954e-12
3.9696e-10
6.65777e-12
3.91759e-10
6.99201e-12
3.86313e-10
7.32227e-12
3.80627e-10
7.64784e-12
3.74702e-10
7.96766e-12
3.68544e-10
8.28149e-12
3.62158e-10
8.58983e-12
3.55548e-10
8.89199e-12
3.4872e-10
9.18651e-12
3.41677e-10
9.47275e-12
3.34428e-10
9.7512e-12
3.26979e-10
1.00222e-11
3.19335e-10
1.02846e-11
3.11504e-10
1.05368e-11
3.03493e-10
1.07783e-11
2.95312e-10
1.10093e-11
2.86969e-10
1.1229e-11
2.78471e-10
1.14359e-11
2.6983e-10
1.1629e-11
2.61055e-10
1.18083e-11
2.52159e-10
1.19741e-11
2.43151e-10
1.21251e-11
2.34044e-10
1.22595e-11
2.24849e-10
1.23766e-11
2.15581e-10
1.24761e-11
2.06254e-10
1.25572e-11
1.96882e-10
1.26187e-11
1.8748e-10
1.26589e-11
1.78064e-10
1.2677e-11
1.68652e-10
1.2673e-11
1.59262e-10
1.26458e-11
1.49912e-10
1.25937e-11
1.40619e-10
1.2515e-11
1.31407e-10
1.24086e-11
1.22295e-10
1.22742e-11
1.13305e-10
1.21108e-11
1.04459e-10
1.19168e-11
9.57811e-11
1.16905e-11
8.72958e-11
1.14311e-11
7.9029e-11
1.11378e-11
7.10062e-11
1.08096e-11
6.32536e-11
1.04448e-11
5.57988e-11
1.00418e-11
4.8671e-11
9.59981e-12
4.18995e-11
9.11824e-12
3.55134e-11
8.59649e-12
2.95417e-11
8.03386e-12
2.40142e-11
7.42997e-12
1.8961e-11
6.78511e-12
1.4411e-11
6.10049e-12
1.0391e-11
5.37816e-12
6.92412e-12
4.62128e-12
4.03034e-12
3.83499e-12
1.72367e-12
3.0274e-12
9.34977e-15
2.21064e-12
-1.12183e-12
1.40291e-12
-1.69921e-12
6.31636e-13
-1.78029e-12
-6.22526e-14
-1.46407e-12
-6.16896e-13
-9.05889e-13
-9.4121e-13
-3.27423e-13
-9.16858e-13
-4.61698e-13
-1.29946e-12
4.66013e-12
-3.7655e-12
4.53212e-12
-5.57326e-12
3.56974e-12
-6.88545e-12
2.56737e-12
-7.54664e-12
1.40094e-12
-7.35916e-12
-2.70664e-14
-6.21127e-12
-1.69496e-12
-4.0206e-12
-3.54716e-12
-7.42528e-13
-5.51139e-12
3.6241e-12
-7.52178e-12
9.0654e-12
-9.52474e-12
1.55368e-11
-1.14665e-11
2.29875e-11
-1.33222e-11
3.13609e-11
-1.5062e-11
4.05885e-11
-1.66857e-11
5.06092e-11
-1.81876e-11
6.13587e-11
-1.95651e-11
7.27759e-11
-2.08267e-11
8.48e-11
-2.19707e-11
9.73748e-11
-2.30024e-11
1.1044e-10
-2.39301e-11
1.23951e-10
-2.4754e-11
1.37852e-10
-2.54859e-11
1.52099e-10
-2.61285e-11
1.66643e-10
-2.66867e-11
1.81445e-10
-2.71659e-11
1.96466e-10
-2.75687e-11
2.11664e-10
-2.79014e-11
2.27004e-10
-2.81635e-11
2.4245e-10
-2.83595e-11
2.57972e-10
-2.84951e-11
2.73536e-10
-2.85744e-11
2.89113e-10
-2.85981e-11
3.04674e-10
-2.85686e-11
3.20194e-10
-2.84903e-11
3.35647e-10
-2.83662e-11
3.51008e-10
-2.81966e-11
3.66254e-10
-2.79847e-11
3.81365e-10
-2.77321e-11
3.9632e-10
-2.74441e-11
4.11099e-10
-2.71186e-11
4.25681e-10
-2.67602e-11
4.40052e-10
-2.63678e-11
4.54195e-10
-2.59448e-11
4.68093e-10
-2.54952e-11
4.8173e-10
-2.50173e-11
4.95094e-10
-2.45126e-11
5.08171e-10
-2.39825e-11
5.20949e-10
-2.34313e-11
5.33417e-10
-2.28594e-11
5.45563e-10
-2.2268e-11
5.57375e-10
-2.16583e-11
5.68846e-10
-2.10297e-11
5.79966e-10
-2.03841e-11
5.90725e-10
-1.9725e-11
6.01116e-10
-1.90524e-11
6.11133e-10
-1.8364e-11
6.20765e-10
-1.7661e-11
6.30008e-10
-1.69455e-11
6.38858e-10
-1.62194e-11
6.47307e-10
-1.54833e-11
6.55349e-10
-1.47383e-11
6.62979e-10
-1.39841e-11
6.70194e-10
-1.32207e-11
6.76991e-10
-1.24508e-11
6.83363e-10
-1.16778e-11
6.89308e-10
-1.09007e-11
6.94824e-10
-1.01164e-11
6.99908e-10
-9.32344e-12
7.04555e-10
-8.52313e-12
7.08765e-10
-7.7177e-12
7.12537e-10
-6.90985e-12
7.15867e-10
-6.10278e-12
7.18752e-10
-5.29565e-12
7.21193e-10
-4.48474e-12
7.23189e-10
-3.66875e-12
7.24738e-10
-2.84965e-12
7.25839e-10
-2.02983e-12
7.26494e-10
-1.21023e-12
7.26702e-10
-3.91165e-13
7.26462e-10
4.26795e-13
7.25772e-10
1.24417e-12
7.24637e-10
2.06223e-12
7.23056e-10
2.88018e-12
7.2103e-10
3.6958e-12
7.18558e-10
4.50826e-12
7.15644e-10
5.31823e-12
7.12288e-10
6.12622e-12
7.08493e-10
6.93109e-12
7.04259e-10
7.73197e-12
6.99589e-10
8.52909e-12
6.94489e-10
9.32173e-12
6.88957e-10
1.01081e-11
6.82997e-10
1.08883e-11
6.76614e-10
1.1663e-11
6.69811e-10
1.24325e-11
6.62592e-10
1.31959e-11
6.54961e-10
1.39507e-11
6.46922e-10
1.46963e-11
6.38481e-10
1.54329e-11
6.29644e-10
1.61598e-11
6.20417e-10
1.68751e-11
6.10805e-10
1.75784e-11
6.00816e-10
1.82695e-11
5.90459e-10
1.89479e-11
5.7974e-10
1.96116e-11
5.68668e-10
2.02586e-11
5.57251e-10
2.08886e-11
5.45501e-10
2.15016e-11
5.33428e-10
2.20964e-11
5.21042e-10
2.2671e-11
5.08354e-10
2.32239e-11
4.95378e-10
2.37541e-11
4.82128e-10
2.42608e-11
4.68616e-10
2.47417e-11
4.54858e-10
2.51945e-11
4.40869e-10
2.56177e-11
4.26667e-10
2.6011e-11
4.12269e-10
2.6373e-11
3.97694e-10
2.67015e-11
3.82959e-10
2.69941e-11
3.68086e-10
2.72492e-11
3.53098e-10
2.74655e-11
3.38016e-10
2.76408e-11
3.22863e-10
2.77721e-11
3.07664e-10
2.7857e-11
2.92447e-10
2.78941e-11
2.7724e-10
2.78819e-11
2.62069e-10
2.78178e-11
2.46964e-10
2.76988e-11
2.31956e-10
2.75223e-11
2.17079e-10
2.72865e-11
2.02365e-10
2.69892e-11
1.87849e-10
2.66279e-11
1.73567e-10
2.61996e-11
1.59556e-10
2.57016e-11
1.45855e-10
2.51321e-11
1.32505e-10
2.44889e-11
1.19546e-10
2.37697e-11
1.07019e-10
2.29717e-11
9.49682e-11
2.20926e-11
8.34379e-11
2.11307e-11
7.24726e-11
2.00846e-11
6.21166e-11
1.89533e-11
5.24146e-11
1.7736e-11
4.34114e-11
1.64329e-11
3.5151e-11
1.50457e-11
2.76746e-11
1.35775e-11
2.10196e-11
1.20336e-11
1.52183e-11
1.04224e-11
1.02967e-11
8.7563e-12
6.27056e-12
7.05354e-12
3.14118e-12
5.34054e-12
8.89533e-13
3.6552e-12
-5.30752e-13
2.05203e-12
-1.20176e-12
6.08777e-13
-1.25466e-12
-5.63892e-13
-8.83043e-13
-1.31219e-12
-3.52894e-13
-1.44701e-12
-8.14834e-13
-8.46596e-13
5.50783e-12
-2.44487e-12
6.13099e-12
-3.76907e-12
4.89728e-12
-4.56146e-12
3.35687e-12
-4.53389e-12
1.3737e-12
-3.47318e-12
-1.09871e-12
-1.189e-12
-3.97886e-12
2.41716e-12
-7.15471e-12
7.40323e-12
-1.04999e-11
1.37825e-11
-1.39011e-11
2.15275e-11
-1.72666e-11
3.05977e-11
-2.05389e-11
4.09279e-11
-2.36496e-11
5.24504e-11
-2.65866e-11
6.50892e-11
-2.93215e-11
7.87617e-11
-3.18576e-11
9.33896e-11
-3.41925e-11
1.08893e-10
-3.63308e-11
1.25199e-10
-3.82771e-11
1.42236e-10
-4.00385e-11
1.5993e-10
-4.1622e-11
1.78215e-10
-4.30386e-11
1.97026e-10
-4.42958e-11
2.16298e-10
-4.54007e-11
2.35973e-10
-4.63612e-11
2.55995e-10
-4.71873e-11
2.7631e-10
-4.78855e-11
2.96868e-10
-4.84595e-11
3.17619e-10
-4.89149e-11
3.38519e-10
-4.92588e-11
3.59523e-10
-4.94984e-11
3.80587e-10
-4.96382e-11
4.01672e-10
-4.96812e-11
4.22739e-10
-4.96359e-11
4.43753e-10
-4.95045e-11
4.64681e-10
-4.92925e-11
4.85487e-10
-4.90024e-11
5.06142e-10
-4.86381e-11
5.26615e-10
-4.8206e-11
5.46884e-10
-4.77077e-11
5.66913e-10
-4.71486e-11
5.86683e-10
-4.65281e-11
6.06169e-10
-4.58505e-11
6.25345e-10
-4.51219e-11
6.44196e-10
-4.43425e-11
6.62695e-10
-4.35161e-11
6.80827e-10
-4.26426e-11
6.9857e-10
-4.17276e-11
7.15911e-10
-4.07727e-11
7.32833e-10
-3.97808e-11
7.49319e-10
-3.87547e-11
7.65355e-10
-3.76949e-11
7.80929e-10
-3.66023e-11
7.96027e-10
-3.54814e-11
8.10636e-10
-3.43346e-11
8.24748e-10
-3.31618e-11
8.38351e-10
-3.19638e-11
8.51433e-10
-3.07431e-11
8.63988e-10
-2.95005e-11
8.76008e-10
-2.8238e-11
8.87483e-10
-2.69585e-11
8.98407e-10
-2.56629e-11
9.08774e-10
-2.43509e-11
9.18576e-10
-2.30232e-11
9.27806e-10
-2.16834e-11
9.36461e-10
-2.03335e-11
9.44536e-10
-1.89732e-11
9.52026e-10
-1.76029e-11
9.58926e-10
-1.62228e-11
9.65234e-10
-1.48325e-11
9.70948e-10
-1.3433e-11
9.76063e-10
-1.20272e-11
9.80576e-10
-1.06178e-11
9.84486e-10
-9.20487e-12
9.87791e-10
-7.78688e-12
9.90488e-10
-6.36451e-12
9.92577e-10
-4.9393e-12
9.94056e-10
-3.51168e-12
9.94928e-10
-2.0825e-12
9.9519e-10
-6.53506e-13
9.9484e-10
7.74595e-13
9.93881e-10
2.2027e-12
9.92314e-10
3.63066e-12
9.90139e-10
5.0564e-12
9.87355e-10
6.47823e-12
9.83966e-10
7.89634e-12
9.79975e-10
9.3107e-12
9.75382e-10
1.07202e-11
9.70188e-10
1.21238e-11
9.64397e-10
1.35212e-11
9.58014e-10
1.49122e-11
9.51041e-10
1.6295e-11
9.43483e-10
1.76672e-11
9.35341e-10
1.90288e-11
9.26623e-10
2.0381e-11
9.17334e-10
2.17228e-11
9.07477e-10
2.30521e-11
8.97058e-10
2.43675e-11
8.86086e-10
2.56677e-11
8.74568e-10
2.69517e-11
8.6251e-10
2.82176e-11
8.49921e-10
2.94633e-11
8.3681e-10
3.06884e-11
8.23187e-10
3.18923e-11
8.09062e-10
3.30728e-11
7.94446e-10
3.42272e-11
7.7935e-10
3.53533e-11
7.63788e-10
3.64501e-11
7.47774e-10
3.75166e-11
7.3132e-10
3.85502e-11
7.14443e-10
3.9548e-11
6.97158e-10
4.05081e-11
6.79483e-10
4.14291e-11
6.61437e-10
4.23081e-11
6.43037e-10
4.31415e-11
6.24304e-10
4.39262e-11
6.05261e-10
4.46602e-11
5.85931e-10
4.53417e-11
5.66337e-10
4.5968e-11
5.46502e-10
4.6535e-11
5.26456e-10
4.70399e-11
5.06225e-10
4.74799e-11
4.8584e-10
4.78519e-11
4.65329e-10
4.81515e-11
4.44726e-10
4.83745e-11
4.24065e-10
4.85176e-11
4.03381e-10
4.85777e-11
3.82713e-10
4.85515e-11
3.62096e-10
4.84346e-11
3.41571e-10
4.82225e-11
3.21181e-10
4.79116e-11
3.0097e-10
4.74982e-11
2.80982e-10
4.69784e-11
2.61262e-10
4.63477e-11
2.41859e-10
4.56017e-11
2.22824e-10
4.47363e-11
2.04209e-10
4.3748e-11
1.86065e-10
4.26333e-11
1.68446e-10
4.13883e-11
1.51408e-10
4.00092e-11
1.35008e-10
3.84926e-11
1.19303e-10
3.68359e-11
1.04351e-10
3.50372e-11
9.02089e-11
3.30954e-11
7.69342e-11
3.10102e-11
6.45836e-11
2.87832e-11
5.32114e-11
2.64181e-11
4.28679e-11
2.39213e-11
3.3598e-11
2.13033e-11
2.54402e-11
1.85795e-11
1.84239e-11
1.57722e-11
1.25649e-11
1.29128e-11
7.86047e-12
1.00453e-11
4.28451e-12
7.2312e-12
1.78009e-12
4.55573e-12
2.52058e-13
2.13617e-12
-4.45345e-13
1.3348e-13
-5.20968e-13
-1.23607e-12
-2.55822e-13
-1.71224e-12
-1.07118e-12
-2.43072e-13
5.75055e-12
-9.06036e-13
6.79272e-12
-1.2651e-12
5.25445e-12
-9.68185e-13
3.0567e-12
2.7933e-13
1.26901e-13
2.72413e-12
-3.53668e-12
6.54381e-12
-7.80095e-12
1.18793e-11
-1.24889e-11
1.87856e-11
-1.74079e-11
2.72974e-11
-2.24123e-11
3.73955e-11
-2.73686e-11
4.90414e-11
-3.21792e-11
6.21737e-11
-3.67834e-11
7.67185e-11
-4.11319e-11
9.25952e-11
-4.5199e-11
1.09713e-10
-4.89794e-11
1.27989e-10
-5.24655e-11
1.47326e-10
-5.56668e-11
1.67639e-10
-5.85897e-11
1.88841e-10
-6.12412e-11
2.10851e-10
-6.36324e-11
2.33587e-10
-6.57754e-11
2.56973e-10
-6.76803e-11
2.80932e-10
-6.93588e-11
3.0539e-10
-7.0821e-11
3.30282e-10
-7.20785e-11
3.55539e-10
-7.31417e-11
3.81099e-10
-7.4019e-11
4.06904e-10
-7.47184e-11
4.32896e-10
-7.52512e-11
4.59021e-10
-7.56238e-11
4.85226e-10
-7.58423e-11
5.11461e-10
-7.59168e-11
5.37681e-10
-7.58536e-11
5.63838e-10
-7.56622e-11
5.89891e-10
-7.53446e-11
6.15797e-10
-7.49095e-11
6.4152e-10
-7.43619e-11
6.67023e-10
-7.37089e-11
6.92271e-10
-7.29555e-11
7.17228e-10
-7.21064e-11
7.41865e-10
-7.11641e-11
7.6615e-10
-7.01369e-11
7.90057e-10
-6.90292e-11
8.13557e-10
-6.78424e-11
8.36625e-10
-6.65829e-11
8.59236e-10
-6.52533e-11
8.81368e-10
-6.38592e-11
9.03e-10
-6.24039e-11
9.24111e-10
-6.08916e-11
9.4468e-10
-5.93248e-11
9.64692e-10
-5.77053e-11
9.84127e-10
-5.60377e-11
1.00297e-09
-5.4326e-11
1.02121e-09
-5.25719e-11
1.03882e-09
-5.07767e-11
1.0558e-09
-4.89441e-11
1.07213e-09
-4.70765e-11
1.08781e-09
-4.5176e-11
1.10282e-09
-4.32454e-11
1.11715e-09
-4.12878e-11
1.13079e-09
-3.93034e-11
1.14373e-09
-3.72937e-11
1.15597e-09
-3.52623e-11
1.1675e-09
-3.32119e-11
1.17831e-09
-3.11429e-11
1.18839e-09
-2.9056e-11
1.19774e-09
-2.69531e-11
1.20635e-09
-2.48356e-11
1.21422e-09
-2.27042e-11
1.22135e-09
-2.0561e-11
1.22773e-09
-1.8409e-11
1.23336e-09
-1.62485e-11
1.23824e-09
-1.40792e-11
1.24235e-09
-1.19023e-11
1.24571e-09
-9.72018e-12
1.2483e-09
-7.53401e-12
1.25013e-09
-5.34442e-12
1.25121e-09
-3.15304e-12
1.25151e-09
-9.61464e-13
1.25105e-09
1.23032e-12
1.24983e-09
3.42262e-12
1.24785e-09
5.61354e-12
1.24511e-09
7.80017e-12
1.2416e-09
9.98149e-12
1.23734e-09
1.2158e-11
1.23233e-09
1.43286e-11
1.22655e-09
1.64912e-11
1.22003e-09
1.8645e-11
1.21276e-09
2.07897e-11
1.20475e-09
2.29233e-11
1.196e-09
2.50435e-11
1.18652e-09
2.71489e-11
1.17631e-09
2.92392e-11
1.16538e-09
3.13142e-11
1.15373e-09
3.33719e-11
1.14137e-09
3.54095e-11
1.12831e-09
3.74257e-11
1.11456e-09
3.9419e-11
1.10013e-09
4.13866e-11
1.08502e-09
4.33259e-11
1.06925e-09
4.52348e-11
1.05282e-09
4.71123e-11
1.03576e-09
4.89566e-11
1.01807e-09
5.07638e-11
9.99764e-10
5.25305e-11
9.80862e-10
5.42545e-11
9.61379e-10
5.59337e-11
9.41331e-10
5.75652e-11
9.20736e-10
5.91451e-11
8.99613e-10
6.06702e-11
8.77984e-10
6.21378e-11
8.55869e-10
6.35446e-11
8.33292e-10
6.48861e-11
8.10276e-10
6.61572e-11
7.86847e-10
6.73543e-11
7.63034e-10
6.84742e-11
7.38864e-10
6.95129e-11
7.14366e-10
7.04658e-11
6.89572e-10
7.13281e-11
6.64517e-10
7.20954e-11
6.39234e-10
7.27632e-11
6.13761e-10
7.3326e-11
5.88135e-10
7.37776e-11
5.62397e-10
7.41123e-11
5.36589e-10
7.43252e-11
5.10757e-10
7.44113e-11
4.84944e-10
7.4365e-11
4.59198e-10
7.418e-11
4.3357e-10
7.38503e-11
4.08112e-10
7.33703e-11
3.82876e-10
7.27344e-11
3.57919e-10
7.19367e-11
3.33296e-10
7.09705e-11
3.09068e-10
6.98297e-11
2.85295e-10
6.85088e-11
2.62041e-10
6.70026e-11
2.3937e-10
6.53055e-11
2.17345e-10
6.34122e-11
1.96036e-10
6.13179e-11
1.75511e-10
5.90182e-11
1.55838e-10
5.65099e-11
1.37085e-10
5.37907e-11
1.1932e-10
5.08598e-11
1.02612e-10
4.7718e-11
8.70261e-11
4.43689e-11
7.26249e-11
4.08196e-11
5.94652e-11
3.70811e-11
4.75979e-11
3.31702e-11
3.70659e-11
2.9111e-11
2.79006e-11
2.49374e-11
2.01179e-11
2.06961e-11
1.37129e-11
1.64508e-11
8.65618e-12
1.2288e-11
4.88696e-12
8.32453e-12
2.30588e-12
4.71712e-12
7.64866e-13
1.67461e-12
5.68493e-14
-5.27952e-13
-9.03663e-14
-1.56537e-12
-1.16219e-12
2.65246e-13
5.4844e-12
6.00164e-13
6.46014e-12
1.41921e-12
4.43837e-12
3.08714e-12
1.39421e-12
5.87443e-12
-2.65935e-12
9.9952e-12
-7.66255e-12
1.56425e-11
-1.34441e-11
2.29167e-11
-1.97651e-11
3.19184e-11
-2.64075e-11
4.26697e-11
-3.31645e-11
5.5168e-11
-3.98691e-11
6.93835e-11
-4.6396e-11
8.52625e-11
-5.2663e-11
1.02731e-10
-5.85979e-11
1.21712e-10
-6.4179e-11
1.42109e-10
-6.93752e-11
1.63831e-10
-7.41884e-11
1.86781e-10
-7.86173e-11
2.10862e-10
-8.26699e-11
2.35977e-10
-8.63563e-11
2.62034e-10
-8.96889e-11
2.8894e-10
-9.26824e-11
3.16607e-10
-9.53483e-11
3.4495e-10
-9.77005e-11
3.73886e-10
-9.97547e-11
4.03333e-10
-1.01526e-10
4.33215e-10
-1.03024e-10
4.63459e-10
-1.04263e-10
4.93996e-10
-1.05256e-10
5.24759e-10
-1.06014e-10
5.55683e-10
-1.06547e-10
5.86706e-10
-1.06865e-10
6.17771e-10
-1.06981e-10
6.48821e-10
-1.06905e-10
6.79805e-10
-1.06643e-10
7.10667e-10
-1.06208e-10
7.41363e-10
-1.05605e-10
7.71846e-10
-1.04845e-10
8.02073e-10
-1.03935e-10
8.32e-10
-1.02883e-10
8.6159e-10
-1.01694e-10
8.90803e-10
-1.00376e-10
9.19603e-10
-9.89383e-11
9.47959e-10
-9.73838e-11
9.75834e-10
-9.57195e-11
1.0032e-09
-9.39497e-11
1.03003e-09
-9.20828e-11
1.0563e-09
-9.01226e-11
1.08197e-09
-8.80768e-11
1.10702e-09
-8.59492e-11
1.13144e-09
-8.3742e-11
1.1552e-09
-8.1461e-11
1.17827e-09
-7.91129e-11
1.20065e-09
-7.67007e-11
1.22231e-09
-7.42273e-11
1.24323e-09
-7.16965e-11
1.26339e-09
-6.91121e-11
1.28279e-09
-6.64773e-11
1.30142e-09
-6.37968e-11
1.31924e-09
-6.10744e-11
1.33627e-09
-5.83115e-11
1.35247e-09
-5.55093e-11
1.36785e-09
-5.26713e-11
1.38239e-09
-4.98027e-11
1.39609e-09
-4.69061e-11
1.40893e-09
-4.39828e-11
1.4209e-09
-4.10347e-11
1.43201e-09
-3.80632e-11
1.44224e-09
-3.50694e-11
1.4516e-09
-3.2056e-11
1.46006e-09
-2.90273e-11
1.46764e-09
-2.59855e-11
1.47432e-09
-2.29307e-11
1.48011e-09
-1.98632e-11
1.48499e-09
-1.67855e-11
1.48897e-09
-1.36999e-11
1.49204e-09
-1.06077e-11
1.49421e-09
-7.51092e-12
1.49547e-09
-4.41213e-12
1.49582e-09
-1.31228e-12
1.49526e-09
1.78895e-12
1.49379e-09
4.89013e-12
1.49142e-09
7.98813e-12
1.48813e-09
1.10807e-11
1.48395e-09
1.41668e-11
1.47886e-09
1.72457e-11
1.47287e-09
2.03156e-11
1.46599e-09
2.33748e-11
1.45821e-09
2.64222e-11
1.44955e-09
2.94562e-11
1.44e-09
3.24735e-11
1.42957e-09
3.54714e-11
1.41827e-09
3.84493e-11
1.4061e-09
4.14066e-11
1.39307e-09
4.43412e-11
1.3792e-09
4.72501e-11
1.36447e-09
5.01305e-11
1.34892e-09
5.29806e-11
1.33254e-09
5.57974e-11
1.31535e-09
5.85771e-11
1.29736e-09
6.13167e-11
1.27858e-09
6.40141e-11
1.25902e-09
6.66668e-11
1.23871e-09
6.92711e-11
1.21765e-09
7.18223e-11
1.19586e-09
7.43162e-11
1.17337e-09
7.67499e-11
1.15018e-09
7.91197e-11
1.12633e-09
8.14208e-11
1.10182e-09
8.36485e-11
1.07669e-09
8.57987e-11
1.05097e-09
8.78673e-11
1.02466e-09
8.98489e-11
9.97811e-10
9.17372e-11
9.70442e-10
9.35261e-11
9.42585e-10
9.52109e-11
9.14274e-10
9.67864e-11
8.85541e-10
9.82464e-11
8.56421e-10
9.95846e-11
8.26954e-10
1.00795e-10
7.97179e-10
1.01871e-10
7.67137e-10
1.02806e-10
7.36871e-10
1.03592e-10
7.06427e-10
1.04222e-10
6.75852e-10
1.04686e-10
6.45198e-10
1.0498e-10
6.14516e-10
1.05095e-10
5.83858e-10
1.05023e-10
5.53282e-10
1.04755e-10
5.22847e-10
1.04285e-10
4.92614e-10
1.03605e-10
4.62644e-10
1.02705e-10
4.33002e-10
1.01579e-10
4.03755e-10
1.00217e-10
3.74974e-10
9.86112e-11
3.46728e-10
9.67548e-11
3.19091e-10
9.46404e-11
2.92135e-10
9.22608e-11
2.65938e-10
8.96091e-11
2.40577e-10
8.66792e-11
2.16129e-10
8.34663e-11
1.92673e-10
7.99665e-11
1.70286e-10
7.61776e-11
1.49046e-10
7.20994e-11
1.29029e-10
6.77348e-11
1.10309e-10
6.30901e-11
9.29524e-11
5.81761e-11
7.70233e-11
5.30097e-11
6.25775e-11
4.76154e-11
4.96611e-11
4.20271e-11
3.83077e-11
3.62912e-11
2.85336e-11
3.04705e-11
2.03345e-11
2.46493e-11
1.36821e-11
1.89397e-11
8.51749e-12
1.34888e-11
4.7446e-12
8.49028e-12
2.22301e-12
4.19671e-12
7.60057e-13
9.34806e-13
1.10304e-13
-9.16108e-13
-1.0524e-12
6.58657e-13
4.8248e-12
1.92865e-12
5.19105e-12
3.98247e-12
2.38159e-12
7.1295e-12
-1.75631e-12
1.15954e-11
-7.1265e-12
1.75695e-11
-1.36306e-11
2.51795e-11
-2.10589e-11
3.45567e-11
-2.91396e-11
4.57575e-11
-3.76104e-11
5.88255e-11
-4.62293e-11
7.37663e-11
-5.48083e-11
9.05512e-11
-6.31818e-11
1.09136e-10
-7.12451e-11
1.29454e-10
-7.89182e-11
1.51427e-10
-8.61497e-11
1.74965e-10
-9.29141e-11
1.99973e-10
-9.91948e-11
2.26348e-10
-1.04992e-10
2.53991e-10
-1.10311e-10
2.82796e-10
-1.15161e-10
3.12663e-10
-1.19556e-10
3.43493e-10
-1.2351e-10
3.75184e-10
-1.2704e-10
4.07645e-10
-1.30161e-10
4.40782e-10
-1.32893e-10
4.74507e-10
-1.35249e-10
5.0873e-10
-1.37247e-10
5.43372e-10
-1.38905e-10
5.78353e-10
-1.40236e-10
6.13595e-10
-1.41256e-10
6.49026e-10
-1.41977e-10
6.84575e-10
-1.42416e-10
7.20179e-10
-1.42584e-10
7.5577e-10
-1.42495e-10
7.91287e-10
-1.42161e-10
8.26674e-10
-1.41594e-10
8.61874e-10
-1.40804e-10
8.96835e-10
-1.39805e-10
9.31506e-10
-1.38606e-10
9.65838e-10
-1.37215e-10
9.99788e-10
-1.35642e-10
1.03331e-09
-1.33898e-10
1.06636e-09
-1.31991e-10
1.09891e-09
-1.29928e-10
1.13091e-09
-1.27719e-10
1.16232e-09
-1.25368e-10
1.19313e-09
-1.22887e-10
1.22329e-09
-1.20282e-10
1.25277e-09
-1.1756e-10
1.28155e-09
-1.14727e-10
1.3096e-09
-1.11789e-10
1.33689e-09
-1.08752e-10
1.3634e-09
-1.05623e-10
1.38911e-09
-1.02408e-10
1.41399e-09
-9.911e-11
1.43803e-09
-9.57358e-11
1.4612e-09
-9.22888e-11
1.4835e-09
-8.87748e-11
1.50491e-09
-8.51994e-11
1.5254e-09
-8.15669e-11
1.54497e-09
-7.78788e-11
1.5636e-09
-7.41387e-11
1.58127e-09
-7.03512e-11
1.59799e-09
-6.65207e-11
1.61373e-09
-6.26504e-11
1.6285e-09
-5.87442e-11
1.64227e-09
-5.48053e-11
1.65504e-09
-5.08349e-11
1.66681e-09
-4.68348e-11
1.67756e-09
-4.28092e-11
1.68729e-09
-3.87623e-11
1.696e-09
-3.46958e-11
1.70368e-09
-3.06108e-11
1.71033e-09
-2.65101e-11
1.71594e-09
-2.23962e-11
1.72051e-09
-1.8271e-11
1.72404e-09
-1.41368e-11
1.72653e-09
-9.99686e-12
1.72796e-09
-5.85336e-12
1.72836e-09
-1.70712e-12
1.72771e-09
2.44082e-12
1.72601e-09
6.58743e-12
1.72327e-09
1.07294e-11
1.71948e-09
1.4865e-11
1.71466e-09
1.89928e-11
1.70879e-09
2.31103e-11
1.70189e-09
2.72153e-11
1.69396e-09
3.13065e-11
1.685e-09
3.53824e-11
1.67502e-09
3.94393e-11
1.66402e-09
4.34734e-11
1.65201e-09
4.74823e-11
1.63899e-09
5.1465e-11
1.62498e-09
5.54194e-11
1.60998e-09
5.93423e-11
1.594e-09
6.32304e-11
1.57705e-09
6.70806e-11
1.55914e-09
7.08895e-11
1.54028e-09
7.46529e-11
1.52049e-09
7.83661e-11
1.49978e-09
8.2026e-11
1.47817e-09
8.56298e-11
1.45566e-09
8.91731e-11
1.43228e-09
9.26502e-11
1.40805e-09
9.60557e-11
1.38298e-09
9.93851e-11
1.3571e-09
1.02634e-10
1.33042e-09
1.05795e-10
1.30298e-09
1.08865e-10
1.27479e-09
1.11836e-10
1.24588e-09
1.14703e-10
1.21629e-09
1.1746e-10
1.18604e-09
1.201e-10
1.15516e-09
1.22614e-10
1.12369e-09
1.24996e-10
1.09167e-09
1.27239e-10
1.05912e-09
1.29336e-10
1.02609e-09
1.31277e-10
9.92614e-10
1.33056e-10
9.58746e-10
1.34663e-10
9.24527e-10
1.36091e-10
8.90003e-10
1.37331e-10
8.55224e-10
1.38371e-10
8.20243e-10
1.39202e-10
7.85115e-10
1.39815e-10
7.49897e-10
1.40199e-10
7.14646e-10
1.40345e-10
6.79426e-10
1.40243e-10
6.44299e-10
1.39881e-10
6.09334e-10
1.3925e-10
5.74599e-10
1.3834e-10
5.40165e-10
1.3714e-10
5.06104e-10
1.35639e-10
4.72492e-10
1.33827e-10
4.39409e-10
1.31694e-10
4.06934e-10
1.29231e-10
3.75148e-10
1.26427e-10
3.44133e-10
1.23275e-10
3.13975e-10
1.19766e-10
2.8476e-10
1.15894e-10
2.56575e-10
1.11652e-10
2.29505e-10
1.07037e-10
2.03637e-10
1.02046e-10
1.79054e-10
9.66816e-11
1.55841e-10
9.09479e-11
1.34076e-10
8.48549e-11
1.13834e-10
7.84185e-11
9.51816e-11
7.16617e-11
7.81796e-11
6.46171e-11
6.28777e-11
5.73291e-11
4.93118e-11
4.98576e-11
3.75011e-11
4.22816e-11
2.74442e-11
3.47056e-11
1.91175e-11
2.72656e-11
1.24686e-11
2.01375e-11
7.41145e-12
1.35481e-11
3.8209e-12
7.78793e-12
1.52838e-12
3.22678e-12
3.2636e-13
2.85312e-13
-7.26334e-13
9.52243e-13
3.87113e-12
3.04915e-12
3.09413e-12
6.2903e-12
-8.62066e-13
1.09204e-11
-6.38366e-12
1.7099e-11
-1.33073e-11
2.4965e-11
-2.14988e-11
3.46221e-11
-3.07138e-11
4.61508e-11
-4.06688e-11
5.96148e-11
-5.10725e-11
7.50438e-11
-6.16616e-11
9.24404e-11
-7.2205e-11
1.11793e-10
-8.25348e-11
1.33049e-10
-9.25035e-11
1.56158e-10
-1.02026e-10
1.81037e-10
-1.1103e-10
2.07604e-10
-1.1948e-10
2.3576e-10
-1.27353e-10
2.65405e-10
-1.34638e-10
2.96434e-10
-1.4134e-10
3.28739e-10
-1.47465e-10
3.62211e-10
-1.53028e-10
3.96744e-10
-1.58043e-10
4.32233e-10
-1.62528e-10
4.68577e-10
-1.66504e-10
5.05672e-10
-1.69988e-10
5.43422e-10
-1.72999e-10
5.81732e-10
-1.75557e-10
6.20512e-10
-1.77684e-10
6.59672e-10
-1.79397e-10
6.9913e-10
-1.80712e-10
7.388e-10
-1.81649e-10
7.78611e-10
-1.82225e-10
8.18484e-10
-1.82456e-10
8.58348e-10
-1.82359e-10
8.98134e-10
-1.81948e-10
9.3778e-10
-1.81238e-10
9.77221e-10
-1.80245e-10
1.0164e-09
-1.78983e-10
1.05526e-09
-1.77462e-10
1.09374e-09
-1.75697e-10
1.13179e-09
-1.73699e-10
1.16938e-09
-1.7148e-10
1.20644e-09
-1.6905e-10
1.24293e-09
-1.66423e-10
1.27882e-09
-1.63604e-10
1.31406e-09
-1.60607e-10
1.34861e-09
-1.5744e-10
1.38244e-09
-1.54114e-10
1.41552e-09
-1.50637e-10
1.44781e-09
-1.47015e-10
1.47928e-09
-1.43259e-10
1.5099e-09
-1.39377e-10
1.53965e-09
-1.35375e-10
1.56851e-09
-1.3126e-10
1.59644e-09
-1.2704e-10
1.62342e-09
-1.2272e-10
1.64944e-09
-1.18307e-10
1.67447e-09
-1.13809e-10
1.6985e-09
-1.0923e-10
1.72151e-09
-1.04576e-10
1.74348e-09
-9.98494e-11
1.7644e-09
-9.50574e-11
1.78426e-09
-9.02048e-11
1.80303e-09
-8.52956e-11
1.82071e-09
-8.03342e-11
1.83729e-09
-7.53254e-11
1.85276e-09
-7.02728e-11
1.86711e-09
-6.51793e-11
1.88032e-09
-6.00496e-11
1.8924e-09
-5.48881e-11
1.90334e-09
-4.96977e-11
1.91312e-09
-4.44805e-11
1.92175e-09
-3.92391e-11
1.92922e-09
-3.39777e-11
1.93552e-09
-2.86991e-11
1.94065e-09
-2.34055e-11
1.94462e-09
-1.8101e-11
1.94741e-09
-1.27892e-11
1.94903e-09
-7.47136e-12
1.94947e-09
-2.14902e-12
1.94873e-09
3.1747e-12
1.94683e-09
8.49569e-12
1.94374e-09
1.38113e-11
1.93949e-09
1.91194e-11
1.93406e-09
2.44173e-11
1.92747e-09
2.97019e-11
1.91972e-09
3.49709e-11