/*--------------------------------*- C++ -*----------------------------------*\
  =========                 |
  \\      /  F ield         | OpenFOAM: The Open Source CFD Toolbox
   \\    /   O peration     | Website:  https://openfoam.org
    \\  /    A nd           | Version:  7
     \\/     M anipulation  |
\*---------------------------------------------------------------------------*/
FoamFile
{
    version     2.0;
    format      ascii;
    class       volVectorField;
    location    "0.2";
    object      U;
}
// * * * * * * * * * * * * * * * * * * * * * * * * * * * * * * * * * * * * * //

dimensions      [0 1 -1 0 0 0 0];

internalField   nonuniform List<vector> 
51200
(
(-2.8653e-07 -1.41096e-07 0)
(-1.62858e-07 -2.05466e-07 0)
(-3.10811e-07 -5.75461e-08 0)
(-2.38324e-07 -4.43075e-08 0)
(-3.11516e-07 -3.19652e-08 0)
(-3.40821e-07 -2.57549e-08 0)
(-3.50168e-07 -2.17087e-08 0)
(-3.29219e-07 -2.29282e-08 0)
(-2.77594e-07 -2.64564e-08 0)
(-1.88442e-07 -3.04333e-08 0)
(-6.08052e-08 -3.86792e-08 0)
(1.07242e-07 -4.88627e-08 0)
(3.14935e-07 -5.79202e-08 0)
(5.58384e-07 -6.84026e-08 0)
(8.37028e-07 -7.79971e-08 0)
(1.14936e-06 -8.6653e-08 0)
(1.4899e-06 -9.54057e-08 0)
(1.85781e-06 -1.04209e-07 0)
(2.25216e-06 -1.11479e-07 0)
(2.66742e-06 -1.17303e-07 0)
(3.10168e-06 -1.22648e-07 0)
(3.55437e-06 -1.27245e-07 0)
(4.02275e-06 -1.31002e-07 0)
(4.50407e-06 -1.35267e-07 0)
(4.99731e-06 -1.39802e-07 0)
(5.50143e-06 -1.4322e-07 0)
(6.01411e-06 -1.45671e-07 0)
(6.53354e-06 -1.47863e-07 0)
(7.0591e-06 -1.49625e-07 0)
(7.58911e-06 -1.50488e-07 0)
(8.12213e-06 -1.50836e-07 0)
(8.65716e-06 -1.51379e-07 0)
(9.19305e-06 -1.52018e-07 0)
(9.72922e-06 -1.52015e-07 0)
(1.02645e-05 -1.51411e-07 0)
(1.07974e-05 -1.50678e-07 0)
(1.13275e-05 -1.49994e-07 0)
(1.1854e-05 -1.49082e-07 0)
(1.23763e-05 -1.4755e-07 0)
(1.28933e-05 -1.45793e-07 0)
(1.34043e-05 -1.4417e-07 0)
(1.39089e-05 -1.42445e-07 0)
(1.44065e-05 -1.40487e-07 0)
(1.48964e-05 -1.37992e-07 0)
(1.53779e-05 -1.35384e-07 0)
(1.58505e-05 -1.32835e-07 0)
(1.63138e-05 -1.30289e-07 0)
(1.67675e-05 -1.27481e-07 0)
(1.72109e-05 -1.24302e-07 0)
(1.76437e-05 -1.21075e-07 0)
(1.80654e-05 -1.17937e-07 0)
(1.84758e-05 -1.14733e-07 0)
(1.88748e-05 -1.11455e-07 0)
(1.92619e-05 -1.08026e-07 0)
(1.96367e-05 -1.0442e-07 0)
(1.9999e-05 -1.00845e-07 0)
(2.03485e-05 -9.73869e-08 0)
(2.06851e-05 -9.38227e-08 0)
(2.10086e-05 -8.99772e-08 0)
(2.13184e-05 -8.59439e-08 0)
(2.16143e-05 -8.18955e-08 0)
(2.18962e-05 -7.78125e-08 0)
(2.21641e-05 -7.37399e-08 0)
(2.24178e-05 -6.97395e-08 0)
(2.26571e-05 -6.57395e-08 0)
(2.28822e-05 -6.16534e-08 0)
(2.3093e-05 -5.75374e-08 0)
(2.32893e-05 -5.34434e-08 0)
(2.34709e-05 -4.92666e-08 0)
(2.36377e-05 -4.49722e-08 0)
(2.37892e-05 -4.06704e-08 0)
(2.39254e-05 -3.64244e-08 0)
(2.40465e-05 -3.21676e-08 0)
(2.41529e-05 -2.78692e-08 0)
(2.42444e-05 -2.3591e-08 0)
(2.43208e-05 -1.93234e-08 0)
(2.4382e-05 -1.49866e-08 0)
(2.44278e-05 -1.06278e-08 0)
(2.44581e-05 -6.35116e-09 0)
(2.4473e-05 -2.11213e-09 0)
(2.44729e-05 2.18182e-09 0)
(2.44578e-05 6.53415e-09 0)
(2.44274e-05 1.08761e-08 0)
(2.43818e-05 1.51894e-08 0)
(2.4321e-05 1.95019e-08 0)
(2.42451e-05 2.37569e-08 0)
(2.41541e-05 2.7931e-08 0)
(2.40479e-05 3.21066e-08 0)
(2.39269e-05 3.63342e-08 0)
(2.37911e-05 4.05876e-08 0)
(2.36403e-05 4.48114e-08 0)
(2.34746e-05 4.89993e-08 0)
(2.32942e-05 5.31687e-08 0)
(2.30994e-05 5.72862e-08 0)
(2.28901e-05 6.1314e-08 0)
(2.26664e-05 6.53019e-08 0)
(2.24284e-05 6.93296e-08 0)
(2.21762e-05 7.33994e-08 0)
(2.191e-05 7.74212e-08 0)
(2.16299e-05 8.134e-08 0)
(2.13362e-05 8.51979e-08 0)
(2.1029e-05 8.90111e-08 0)
(2.07086e-05 9.27474e-08 0)
(2.03751e-05 9.64135e-08 0)
(2.00287e-05 1.00043e-07 0)
(1.96697e-05 1.03642e-07 0)
(1.92986e-05 1.07162e-07 0)
(1.89154e-05 1.10532e-07 0)
(1.85205e-05 1.13765e-07 0)
(1.81143e-05 1.16932e-07 0)
(1.76972e-05 1.20045e-07 0)
(1.72694e-05 1.23054e-07 0)
(1.68314e-05 1.25918e-07 0)
(1.63835e-05 1.28651e-07 0)
(1.59264e-05 1.31277e-07 0)
(1.54604e-05 1.33764e-07 0)
(1.49862e-05 1.36052e-07 0)
(1.45043e-05 1.38142e-07 0)
(1.40151e-05 1.40089e-07 0)
(1.35195e-05 1.41911e-07 0)
(1.30179e-05 1.43566e-07 0)
(1.2511e-05 1.44999e-07 0)
(1.19995e-05 1.46198e-07 0)
(1.14843e-05 1.47204e-07 0)
(1.09661e-05 1.48005e-07 0)
(1.04457e-05 1.48535e-07 0)
(9.92392e-06 1.48787e-07 0)
(9.40176e-06 1.48792e-07 0)
(8.88021e-06 1.48559e-07 0)
(8.36018e-06 1.48059e-07 0)
(7.84268e-06 1.47226e-07 0)
(7.32885e-06 1.46027e-07 0)
(6.81989e-06 1.44482e-07 0)
(6.31706e-06 1.42606e-07 0)
(5.82156e-06 1.40378e-07 0)
(5.33461e-06 1.37746e-07 0)
(4.85756e-06 1.34683e-07 0)
(4.39187e-06 1.31208e-07 0)
(3.93905e-06 1.27327e-07 0)
(3.50054e-06 1.23003e-07 0)
(3.07788e-06 1.1818e-07 0)
(2.67272e-06 1.12819e-07 0)
(2.28682e-06 1.06923e-07 0)
(1.92196e-06 1.00493e-07 0)
(1.57988e-06 9.3504e-08 0)
(1.26231e-06 8.59244e-08 0)
(9.71059e-07 7.77344e-08 0)
(7.08022e-07 6.89354e-08 0)
(4.75051e-07 5.95383e-08 0)
(2.7385e-07 4.95464e-08 0)
(1.05955e-07 3.8971e-08 0)
(-2.72633e-08 2.78609e-08 0)
(-1.24706e-07 1.63382e-08 0)
(-1.85869e-07 4.64665e-09 0)
(-2.11239e-07 -6.83907e-09 0)
(-2.02865e-07 -1.74113e-08 0)
(-1.65312e-07 -2.57053e-08 0)
(-1.07137e-07 -2.93783e-08 0)
(-4.63737e-08 -2.44839e-08 0)
(-8.67541e-09 -8.86386e-09 0)
(-3.79475e-07 3.04896e-07 0)
(-7.18281e-07 8.78305e-09 0)
(-8.46362e-07 1.11916e-07 0)
(-9.91285e-07 8.51474e-08 0)
(-1.10442e-06 5.76186e-08 0)
(-1.16056e-06 2.15026e-08 0)
(-1.12262e-06 -2.72289e-08 0)
(-9.97091e-07 -8.96907e-08 0)
(-7.64429e-07 -1.57104e-07 0)
(-4.24757e-07 -2.32746e-07 0)
(2.47742e-08 -3.08684e-07 0)
(5.85489e-07 -3.85228e-07 0)
(1.24787e-06 -4.59624e-07 0)
(2.01078e-06 -5.2981e-07 0)
(2.86627e-06 -5.94959e-07 0)
(3.80535e-06 -6.54976e-07 0)
(4.82485e-06 -7.11338e-07 0)
(5.91773e-06 -7.61754e-07 0)
(7.07476e-06 -8.07731e-07 0)
(8.29124e-06 -8.49139e-07 0)
(9.5617e-06 -8.85512e-07 0)
(1.08795e-05 -9.17422e-07 0)
(1.22396e-05 -9.45407e-07 0)
(1.36371e-05 -9.70638e-07 0)
(1.50674e-05 -9.92839e-07 0)
(1.65255e-05 -1.01143e-06 0)
(1.8008e-05 -1.0273e-06 0)
(1.95101e-05 -1.04053e-06 0)
(2.10275e-05 -1.05057e-06 0)
(2.25582e-05 -1.0577e-06 0)
(2.40976e-05 -1.06254e-06 0)
(2.56422e-05 -1.06564e-06 0)
(2.71897e-05 -1.06688e-06 0)
(2.87369e-05 -1.06564e-06 0)
(3.02813e-05 -1.06241e-06 0)
(3.18201e-05 -1.05772e-06 0)
(3.33504e-05 -1.0516e-06 0)
(3.48703e-05 -1.04359e-06 0)
(3.63778e-05 -1.03378e-06 0)
(3.78708e-05 -1.02271e-06 0)
(3.93465e-05 -1.01064e-06 0)
(4.08036e-05 -9.97247e-07 0)
(4.22405e-05 -9.82588e-07 0)
(4.36554e-05 -9.6644e-07 0)
(4.50467e-05 -9.49319e-07 0)
(4.64124e-05 -9.31486e-07 0)
(4.77512e-05 -9.1272e-07 0)
(4.90623e-05 -8.92782e-07 0)
(5.03446e-05 -8.71935e-07 0)
(5.15961e-05 -8.50508e-07 0)
(5.28159e-05 -8.28427e-07 0)
(5.4003e-05 -8.0561e-07 0)
(5.51566e-05 -7.82168e-07 0)
(5.62762e-05 -7.5809e-07 0)
(5.73605e-05 -7.33435e-07 0)
(5.84084e-05 -7.08413e-07 0)
(5.94192e-05 -6.82994e-07 0)
(6.03926e-05 -6.56822e-07 0)
(6.1328e-05 -6.30067e-07 0)
(6.22246e-05 -6.02943e-07 0)
(6.30814e-05 -5.75506e-07 0)
(6.3898e-05 -5.47569e-07 0)
(6.46738e-05 -5.19342e-07 0)
(6.54087e-05 -4.90994e-07 0)
(6.61025e-05 -4.62525e-07 0)
(6.67549e-05 -4.33982e-07 0)
(6.7365e-05 -4.05321e-07 0)
(6.79326e-05 -3.76272e-07 0)
(6.84578e-05 -3.46609e-07 0)
(6.89402e-05 -3.16572e-07 0)
(6.93794e-05 -2.86617e-07 0)
(6.97752e-05 -2.56882e-07 0)
(7.01272e-05 -2.27163e-07 0)
(7.04354e-05 -1.97298e-07 0)
(7.06996e-05 -1.67208e-07 0)
(7.09201e-05 -1.36816e-07 0)
(7.10969e-05 -1.06239e-07 0)
(7.12295e-05 -7.57876e-08 0)
(7.13177e-05 -4.5604e-08 0)
(7.13615e-05 -1.54873e-08 0)
(7.13611e-05 1.47664e-08 0)
(7.13166e-05 4.51175e-08 0)
(7.12279e-05 7.54877e-08 0)
(7.10954e-05 1.05841e-07 0)
(7.09189e-05 1.36121e-07 0)
(7.06984e-05 1.66167e-07 0)
(7.04339e-05 1.95998e-07 0)
(7.01257e-05 2.2582e-07 0)
(6.97741e-05 2.55652e-07 0)
(6.93794e-05 2.85363e-07 0)
(6.89415e-05 3.14854e-07 0)
(6.84607e-05 3.4417e-07 0)
(6.79373e-05 3.73353e-07 0)
(6.73715e-05 4.02298e-07 0)
(6.67636e-05 4.30934e-07 0)
(6.61141e-05 4.59384e-07 0)
(6.54234e-05 4.87701e-07 0)
(6.46919e-05 5.15777e-07 0)
(6.39197e-05 5.43494e-07 0)
(6.31074e-05 5.70825e-07 0)
(6.22555e-05 5.97829e-07 0)
(6.13647e-05 6.24486e-07 0)
(6.04356e-05 6.50661e-07 0)
(5.94687e-05 6.76331e-07 0)
(5.84651e-05 7.01584e-07 0)
(5.74253e-05 7.26379e-07 0)
(5.63501e-05 7.50555e-07 0)
(5.52402e-05 7.73996e-07 0)
(5.40966e-05 7.96763e-07 0)
(5.29203e-05 8.18966e-07 0)
(5.17125e-05 8.40536e-07 0)
(5.04743e-05 8.61281e-07 0)
(4.92066e-05 8.81116e-07 0)
(4.7911e-05 9.00078e-07 0)
(4.65888e-05 9.18152e-07 0)
(4.52412e-05 9.35198e-07 0)
(4.38696e-05 9.51071e-07 0)
(4.24759e-05 9.65785e-07 0)
(4.10617e-05 9.79424e-07 0)
(3.96289e-05 9.91919e-07 0)
(3.81792e-05 1.00307e-06 0)
(3.67146e-05 1.01277e-06 0)
(3.52371e-05 1.021e-06 0)
(3.3749e-05 1.02776e-06 0)
(3.22525e-05 1.03294e-06 0)
(3.07498e-05 1.03637e-06 0)
(2.92436e-05 1.03796e-06 0)
(2.77367e-05 1.03775e-06 0)
(2.62319e-05 1.03569e-06 0)
(2.47319e-05 1.03161e-06 0)
(2.32397e-05 1.02532e-06 0)
(2.17586e-05 1.0167e-06 0)
(2.02918e-05 1.00576e-06 0)
(1.88428e-05 9.92462e-07 0)
(1.7415e-05 9.76652e-07 0)
(1.60121e-05 9.58165e-07 0)
(1.4638e-05 9.36903e-07 0)
(1.32968e-05 9.12837e-07 0)
(1.19926e-05 8.85896e-07 0)
(1.07295e-05 8.55909e-07 0)
(9.51186e-06 8.22701e-07 0)
(8.34416e-06 7.86168e-07 0)
(7.23109e-06 7.46276e-07 0)
(6.17733e-06 7.02984e-07 0)
(5.18755e-06 6.56206e-07 0)
(4.26644e-06 6.05854e-07 0)
(3.41884e-06 5.51921e-07 0)
(2.64951e-06 4.94484e-07 0)
(1.96294e-06 4.3368e-07 0)
(1.36316e-06 3.69719e-07 0)
(8.53689e-07 3.0295e-07 0)
(4.37347e-07 2.33989e-07 0)
(1.15809e-07 1.63808e-07 0)
(-1.11065e-07 9.39572e-08 0)
(-2.46092e-07 2.68645e-08 0)
(-2.95857e-07 -3.37005e-08 0)
(-2.72192e-07 -8.16713e-08 0)
(-1.94286e-07 -1.07557e-07 0)
(-9.58674e-08 -9.83759e-08 0)
(-2.30992e-08 -4.58658e-08 0)
(-1.65342e-07 5.48796e-07 0)
(-4.4981e-07 5.11311e-07 0)
(-7.94084e-07 3.95216e-07 0)
(-1.01792e-06 2.84909e-07 0)
(-1.19069e-06 1.67451e-07 0)
(-1.22572e-06 2.41439e-08 0)
(-1.12616e-06 -1.49582e-07 0)
(-8.58233e-07 -3.44194e-07 0)
(-4.22147e-07 -5.57073e-07 0)
(1.88475e-07 -7.75269e-07 0)
(9.75609e-07 -9.94426e-07 0)
(1.92879e-06 -1.20872e-06 0)
(3.04494e-06 -1.41374e-06 0)
(4.31359e-06 -1.60468e-06 0)
(5.72439e-06 -1.78542e-06 0)
(7.26621e-06 -1.9507e-06 0)
(8.92994e-06 -2.10165e-06 0)
(1.07057e-05 -2.24138e-06 0)
(1.25836e-05 -2.36739e-06 0)
(1.45537e-05 -2.48043e-06 0)
(1.66068e-05 -2.58258e-06 0)
(1.8735e-05 -2.673e-06 0)
(2.09299e-05 -2.75264e-06 0)
(2.31835e-05 -2.82277e-06 0)
(2.5488e-05 -2.88362e-06 0)
(2.78379e-05 -2.93557e-06 0)
(3.02254e-05 -2.97937e-06 0)
(3.26439e-05 -3.01573e-06 0)
(3.50884e-05 -3.04426e-06 0)
(3.7553e-05 -3.06527e-06 0)
(4.00317e-05 -3.07974e-06 0)
(4.25196e-05 -3.08837e-06 0)
(4.50116e-05 -3.09105e-06 0)
(4.75042e-05 -3.0876e-06 0)
(4.9992e-05 -3.07875e-06 0)
(5.24706e-05 -3.06523e-06 0)
(5.49362e-05 -3.04692e-06 0)
(5.73858e-05 -3.02383e-06 0)
(5.98157e-05 -2.99622e-06 0)
(6.22217e-05 -2.96474e-06 0)
(6.46008e-05 -2.92946e-06 0)
(6.69501e-05 -2.8907e-06 0)
(6.92673e-05 -2.84813e-06 0)
(7.15494e-05 -2.80211e-06 0)
(7.37933e-05 -2.75324e-06 0)
(7.59963e-05 -2.70155e-06 0)
(7.81568e-05 -2.64701e-06 0)
(8.02728e-05 -2.58951e-06 0)
(8.2342e-05 -2.5298e-06 0)
(8.43621e-05 -2.46792e-06 0)
(8.63314e-05 -2.40401e-06 0)
(8.82483e-05 -2.33816e-06 0)
(9.01113e-05 -2.27024e-06 0)
(9.19192e-05 -2.20041e-06 0)
(9.36701e-05 -2.12913e-06 0)
(9.53622e-05 -2.05652e-06 0)
(9.69948e-05 -1.98226e-06 0)
(9.8567e-05 -1.90626e-06 0)
(0.000100078 -1.82887e-06 0)
(0.000101525 -1.75041e-06 0)
(0.000102909 -1.67092e-06 0)
(0.000104229 -1.59044e-06 0)
(0.000105482 -1.509e-06 0)
(0.00010667 -1.42663e-06 0)
(0.000107792 -1.34361e-06 0)
(0.000108845 -1.26033e-06 0)
(0.000109831 -1.17671e-06 0)
(0.000110748 -1.0922e-06 0)
(0.000111596 -1.00648e-06 0)
(0.000112374 -9.19896e-07 0)
(0.000113083 -8.32921e-07 0)
(0.000113722 -7.45906e-07 0)
(0.00011429 -6.59085e-07 0)
(0.000114787 -5.72252e-07 0)
(0.000115213 -4.84907e-07 0)
(0.000115568 -3.9682e-07 0)
(0.000115852 -3.08289e-07 0)
(0.000116064 -2.19799e-07 0)
(0.000116205 -1.31529e-07 0)
(0.000116274 -4.33901e-08 0)
(0.000116271 4.46671e-08 0)
(0.000116196 1.32707e-07 0)
(0.00011605 2.20886e-07 0)
(0.000115833 3.09123e-07 0)
(0.000115545 3.97121e-07 0)
(0.000115185 4.84681e-07 0)
(0.000114754 5.7188e-07 0)
(0.000114252 6.58905e-07 0)
(0.00011368 7.45647e-07 0)
(0.000113037 8.31953e-07 0)
(0.000112325 9.17833e-07 0)
(0.000111544 1.00325e-06 0)
(0.000110693 1.08804e-06 0)
(0.000109773 1.17215e-06 0)
(0.000108786 1.25562e-06 0)
(0.000107731 1.33855e-06 0)
(0.000106609 1.42088e-06 0)
(0.000105421 1.50229e-06 0)
(0.000104167 1.58269e-06 0)
(0.000102848 1.66214e-06 0)
(0.000101466 1.74057e-06 0)
(0.00010002 1.81779e-06 0)
(9.85127e-05 1.89368e-06 0)
(9.69444e-05 1.96824e-06 0)
(9.53165e-05 2.04147e-06 0)
(9.36302e-05 2.11317e-06 0)
(9.18866e-05 2.18306e-06 0)
(9.00871e-05 2.25107e-06 0)
(8.82333e-05 2.31724e-06 0)
(8.63269e-05 2.38153e-06 0)
(8.43697e-05 2.44369e-06 0)
(8.23633e-05 2.50347e-06 0)
(8.03098e-05 2.56081e-06 0)
(7.82112e-05 2.61563e-06 0)
(7.60697e-05 2.66771e-06 0)
(7.38875e-05 2.71675e-06 0)
(7.1667e-05 2.76256e-06 0)
(6.9411e-05 2.80513e-06 0)
(6.71223e-05 2.84438e-06 0)
(6.48036e-05 2.88006e-06 0)
(6.2458e-05 2.91186e-06 0)
(6.00887e-05 2.93959e-06 0)
(5.7699e-05 2.96315e-06 0)
(5.52925e-05 2.98231e-06 0)
(5.28726e-05 2.99675e-06 0)
(5.04434e-05 3.00615e-06 0)
(4.80091e-05 3.01036e-06 0)
(4.5574e-05 3.00927e-06 0)
(4.31425e-05 3.00262e-06 0)
(4.07193e-05 2.99004e-06 0)
(3.8309e-05 2.9712e-06 0)
(3.5917e-05 2.94589e-06 0)
(3.35484e-05 2.91392e-06 0)
(3.12086e-05 2.87503e-06 0)
(2.89033e-05 2.82885e-06 0)
(2.66382e-05 2.77508e-06 0)
(2.44197e-05 2.71349e-06 0)
(2.22541e-05 2.64389e-06 0)
(2.01477e-05 2.56599e-06 0)
(1.81072e-05 2.47947e-06 0)
(1.61392e-05 2.38402e-06 0)
(1.4251e-05 2.27942e-06 0)
(1.24496e-05 2.16554e-06 0)
(1.07422e-05 2.04221e-06 0)
(9.13573e-06 1.90933e-06 0)
(7.63756e-06 1.76685e-06 0)
(6.25479e-06 1.61488e-06 0)
(4.9943e-06 1.45371e-06 0)
(3.86241e-06 1.28388e-06 0)
(2.86476e-06 1.1062e-06 0)
(2.00613e-06 9.21992e-07 0)
(1.29001e-06 7.33196e-07 0)
(7.17942e-07 5.42718e-07 0)
(2.88723e-07 3.54837e-07 0)
(-2.57166e-09 1.75859e-07 0)
(-1.65795e-07 1.50384e-08 0)
(-2.17364e-07 -1.1407e-07 0)
(-1.81945e-07 -1.92125e-07 0)
(-9.98764e-08 -1.9475e-07 0)
(-2.64442e-08 -1.03414e-07 0)
(-8.3412e-08 8.67336e-07 0)
(-2.79874e-07 8.89057e-07 0)
(-5.24975e-07 6.96453e-07 0)
(-7.05585e-07 4.92552e-07 0)
(-7.66426e-07 2.48176e-07 0)
(-6.90205e-07 -5.39086e-08 0)
(-4.22818e-07 -4.06527e-07 0)
(4.41116e-08 -7.9776e-07 0)
(7.30484e-07 -1.21246e-06 0)
(1.64228e-06 -1.63378e-06 0)
(2.77169e-06 -2.05311e-06 0)
(4.1192e-06 -2.45934e-06 0)
(5.67434e-06 -2.84548e-06 0)
(7.42454e-06 -3.21007e-06 0)
(9.36093e-06 -3.54857e-06 0)
(1.14697e-05 -3.86265e-06 0)
(1.37357e-05 -4.15107e-06 0)
(1.61495e-05 -4.41434e-06 0)
(1.86972e-05 -4.65367e-06 0)
(2.13675e-05 -4.87044e-06 0)
(2.41485e-05 -5.06516e-06 0)
(2.70297e-05 -5.2387e-06 0)
(3.00001e-05 -5.39296e-06 0)
(3.30485e-05 -5.52839e-06 0)
(3.6167e-05 -5.64566e-06 0)
(3.93452e-05 -5.74627e-06 0)
(4.25737e-05 -5.83134e-06 0)
(4.58454e-05 -5.90141e-06 0)
(4.91521e-05 -5.95667e-06 0)
(5.24865e-05 -5.99819e-06 0)
(5.58403e-05 -6.02718e-06 0)
(5.92069e-05 -6.04413e-06 0)
(6.25806e-05 -6.049e-06 0)
(6.59544e-05 -6.0429e-06 0)
(6.93225e-05 -6.02653e-06 0)
(7.26787e-05 -6.00053e-06 0)
(7.60186e-05 -5.96487e-06 0)
(7.9337e-05 -5.92008e-06 0)
(8.26286e-05 -5.8669e-06 0)
(8.5889e-05 -5.80604e-06 0)
(8.91135e-05 -5.73766e-06 0)
(9.22984e-05 -5.66187e-06 0)
(9.54401e-05 -5.57894e-06 0)
(9.85341e-05 -5.48977e-06 0)
(0.000101577 -5.39478e-06 0)
(0.000104565 -5.29396e-06 0)
(0.000107497 -5.18738e-06 0)
(0.000110368 -5.07556e-06 0)
(0.000113175 -4.95906e-06 0)
(0.000115917 -4.83821e-06 0)
(0.00011859 -4.71325e-06 0)
(0.000121192 -4.58422e-06 0)
(0.000123721 -4.45113e-06 0)
(0.000126176 -4.31457e-06 0)
(0.000128553 -4.17506e-06 0)
(0.000130851 -4.03257e-06 0)
(0.000133068 -3.88688e-06 0)
(0.000135203 -3.73824e-06 0)
(0.000137255 -3.5869e-06 0)
(0.000139221 -3.43327e-06 0)
(0.000141101 -3.2776e-06 0)
(0.000142893 -3.12004e-06 0)
(0.000144597 -2.96049e-06 0)
(0.00014621 -2.79896e-06 0)
(0.000147734 -2.63602e-06 0)
(0.000149165 -2.4721e-06 0)
(0.000150503 -2.30712e-06 0)
(0.000151748 -2.14082e-06 0)
(0.000152899 -1.97306e-06 0)
(0.000153956 -1.8039e-06 0)
(0.000154918 -1.63362e-06 0)
(0.000155785 -1.4627e-06 0)
(0.000156555 -1.29162e-06 0)
(0.000157229 -1.12028e-06 0)
(0.000157806 -9.48253e-07 0)
(0.000158286 -7.75464e-07 0)
(0.000158669 -6.02197e-07 0)
(0.000158955 -4.28688e-07 0)
(0.000159143 -2.55099e-07 0)
(0.000159234 -8.15881e-08 0)
(0.000159227 9.17557e-08 0)
(0.000159122 2.65066e-07 0)
(0.00015892 4.38436e-07 0)
(0.000158621 6.11635e-07 0)
(0.000158224 7.84342e-07 0)
(0.00015773 9.56511e-07 0)
(0.000157139 1.1282e-06 0)
(0.000156452 1.29936e-06 0)
(0.000155669 1.46982e-06 0)
(0.000154791 1.63951e-06 0)
(0.000153817 1.80842e-06 0)
(0.000152748 1.97636e-06 0)
(0.000151585 2.14297e-06 0)
(0.000150329 2.30828e-06 0)
(0.00014898 2.47246e-06 0)
(0.000147539 2.63545e-06 0)
(0.000146007 2.79701e-06 0)
(0.000144385 2.95685e-06 0)
(0.000142674 3.11481e-06 0)
(0.000140874 3.27083e-06 0)
(0.000138988 3.42469e-06 0)
(0.000137015 3.57611e-06 0)
(0.000134959 3.72501e-06 0)
(0.00013282 3.87136e-06 0)
(0.0001306 4.01493e-06 0)
(0.0001283 4.15536e-06 0)
(0.000125923 4.29231e-06 0)
(0.000123469 4.42568e-06 0)
(0.000120943 4.55541e-06 0)
(0.000118345 4.68122e-06 0)
(0.000115677 4.80272e-06 0)
(0.000112944 4.91963e-06 0)
(0.000110146 5.03179e-06 0)
(0.000107288 5.1389e-06 0)
(0.000104372 5.24051e-06 0)
(0.0001014 5.33617e-06 0)
(9.83772e-05 5.42563e-06 0)
(9.53064e-05 5.50875e-06 0)
(9.21914e-05 5.58519e-06 0)
(8.9036e-05 5.65448e-06 0)
(8.58446e-05 5.7162e-06 0)
(8.26213e-05 5.77002e-06 0)
(7.93709e-05 5.81559e-06 0)
(7.60979e-05 5.8524e-06 0)
(7.28075e-05 5.87992e-06 0)
(6.95049e-05 5.89766e-06 0)
(6.61958e-05 5.9053e-06 0)
(6.28861e-05 5.90246e-06 0)
(5.95817e-05 5.88861e-06 0)
(5.62888e-05 5.86315e-06 0)
(5.3014e-05 5.82559e-06 0)
(4.97642e-05 5.77551e-06 0)
(4.65464e-05 5.71244e-06 0)
(4.33679e-05 5.63583e-06 0)
(4.02361e-05 5.5451e-06 0)
(3.7159e-05 5.43972e-06 0)
(3.41449e-05 5.31925e-06 0)
(3.1202e-05 5.18328e-06 0)
(2.83388e-05 5.03129e-06 0)
(2.55641e-05 4.86277e-06 0)
(2.28868e-05 4.67726e-06 0)
(2.03162e-05 4.4744e-06 0)
(1.78613e-05 4.25393e-06 0)
(1.55315e-05 4.01566e-06 0)
(1.33359e-05 3.7595e-06 0)
(1.12837e-05 3.48556e-06 0)
(9.38376e-06 3.1942e-06 0)
(7.64459e-06 2.88616e-06 0)
(6.07386e-06 2.56263e-06 0)
(4.67832e-06 2.22545e-06 0)
(3.46351e-06 1.87729e-06 0)
(2.43322e-06 1.52204e-06 0)
(1.58872e-06 1.16521e-06 0)
(9.27904e-07 8.14657e-07 0)
(4.44417e-07 4.81492e-07 0)
(1.26502e-07 1.81271e-07 0)
(-4.45312e-08 -6.42672e-08 0)
(-9.60128e-08 -2.25451e-07 0)
(-6.99233e-08 -2.66134e-07 0)
(-2.16074e-08 -1.55607e-07 0)
(-2.90214e-08 9.32725e-07 0)
(-9.73137e-08 1.08007e-06 0)
(-2.043e-07 8.55701e-07 0)
(-2.15989e-07 5.6016e-07 0)
(-1.05236e-07 1.71527e-07 0)
(1.8743e-07 -3.13803e-07 0)
(6.81694e-07 -8.78344e-07 0)
(1.41116e-06 -1.50136e-06 0)
(2.39044e-06 -2.15378e-06 0)
(3.62264e-06 -2.82012e-06 0)
(5.11383e-06 -3.47789e-06 0)
(6.85562e-06 -4.1164e-06 0)
(8.83919e-06 -4.72549e-06 0)
(1.10573e-05 -5.30067e-06 0)
(1.34944e-05 -5.83622e-06 0)
(1.61371e-05 -6.33414e-06 0)
(1.89727e-05 -6.79272e-06 0)
(2.19847e-05 -7.21274e-06 0)
(2.51604e-05 -7.59559e-06 0)
(2.84845e-05 -7.94229e-06 0)
(3.19451e-05 -8.25415e-06 0)
(3.55282e-05 -8.53365e-06 0)
(3.92203e-05 -8.78206e-06 0)
(4.30112e-05 -9.00053e-06 0)
(4.68876e-05 -9.19053e-06 0)
(5.08381e-05 -9.35403e-06 0)
(5.48523e-05 -9.49224e-06 0)
(5.892e-05 -9.60581e-06 0)
(6.30319e-05 -9.69596e-06 0)
(6.71778e-05 -9.76456e-06 0)
(7.13491e-05 -9.81254e-06 0)
(7.55374e-05 -9.84043e-06 0)
(7.97348e-05 -9.84928e-06 0)
(8.39333e-05 -9.84049e-06 0)
(8.81248e-05 -9.81505e-06 0)
(9.2303e-05 -9.77337e-06 0)
(9.64616e-05 -9.71622e-06 0)
(0.000100594 -9.64437e-06 0)
(0.000104693 -9.55909e-06 0)
(0.000108754 -9.46085e-06 0)
(0.000112772 -9.35027e-06 0)
(0.000116741 -9.22746e-06 0)
(0.000120656 -9.09353e-06 0)
(0.000124512 -8.94941e-06 0)
(0.000128306 -8.79516e-06 0)
(0.000132032 -8.6315e-06 0)
(0.000135687 -8.45856e-06 0)
(0.000139268 -8.27732e-06 0)
(0.00014277 -8.08825e-06 0)
(0.00014619 -7.89191e-06 0)
(0.000149525 -7.68859e-06 0)
(0.000152772 -7.47841e-06 0)
(0.000155929 -7.26187e-06 0)
(0.000158992 -7.03969e-06 0)
(0.000161959 -6.81224e-06 0)
(0.000164827 -6.57957e-06 0)
(0.000167595 -6.34196e-06 0)
(0.000170261 -6.09979e-06 0)
(0.000172822 -5.85336e-06 0)
(0.000175277 -5.60305e-06 0)
(0.000177625 -5.34932e-06 0)
(0.000179862 -5.09223e-06 0)
(0.000181989 -4.83184e-06 0)
(0.000184005 -4.56849e-06 0)
(0.000185906 -4.30274e-06 0)
(0.000187693 -4.03479e-06 0)
(0.000189365 -3.76466e-06 0)
(0.000190919 -3.49251e-06 0)
(0.000192356 -3.21841e-06 0)
(0.000193676 -2.94239e-06 0)
(0.000194876 -2.66473e-06 0)
(0.000195957 -2.3859e-06 0)
(0.000196918 -2.10617e-06 0)
(0.000197758 -1.82548e-06 0)
(0.000198477 -1.54379e-06 0)
(0.000199075 -1.26134e-06 0)
(0.000199551 -9.7834e-07 0)
(0.000199905 -6.94891e-07 0)
(0.000200138 -4.11202e-07 0)
(0.000200248 -1.27526e-07 0)
(0.000200236 1.56106e-07 0)
(0.000200101 4.39799e-07 0)
(0.000199845 7.23381e-07 0)
(0.000199467 1.00644e-06 0)
(0.000198967 1.28877e-06 0)
(0.000198346 1.57041e-06 0)
(0.000197603 1.85131e-06 0)
(0.00019674 2.1312e-06 0)
(0.000195757 2.40996e-06 0)
(0.000194653 2.68753e-06 0)
(0.000193431 2.96372e-06 0)
(0.00019209 3.2382e-06 0)
(0.000190631 3.51068e-06 0)
(0.000189056 3.78116e-06 0)
(0.000187364 4.04972e-06 0)
(0.000185557 4.31612e-06 0)
(0.000183636 4.57998e-06 0)
(0.000181603 4.84108e-06 0)
(0.000179458 5.0992e-06 0)
(0.000177202 5.35405e-06 0)
(0.000174838 5.60524e-06 0)
(0.000172367 5.85248e-06 0)
(0.000169791 6.09565e-06 0)
(0.000167112 6.33458e-06 0)
(0.000164331 6.56879e-06 0)
(0.000161451 6.79777e-06 0)
(0.000158474 7.02118e-06 0)
(0.000155402 7.23881e-06 0)
(0.000152239 7.45032e-06 0)
(0.000148987 7.65524e-06 0)
(0.000145648 7.85306e-06 0)
(0.000142227 8.04343e-06 0)
(0.000138727 8.22599e-06 0)
(0.000135151 8.40015e-06 0)
(0.000131502 8.56523e-06 0)
(0.000127786 8.72067e-06 0)
(0.000124005 8.86609e-06 0)
(0.000120165 9.00105e-06 0)
(0.000116271 9.12497e-06 0)
(0.000112326 9.23716e-06 0)
(0.000108337 9.33701e-06 0)
(0.000104308 9.424e-06 0)
(0.000100247 9.49742e-06 0)
(9.6157e-05 9.55646e-06 0)
(9.20462e-05 9.60032e-06 0)
(8.79208e-05 9.62835e-06 0)
(8.37878e-05 9.63994e-06 0)
(7.96542e-05 9.63436e-06 0)
(7.55276e-05 9.6108e-06 0)
(7.14157e-05 9.56843e-06 0)
(6.73267e-05 9.50648e-06 0)
(6.32691e-05 9.42425e-06 0)
(5.92515e-05 9.32096e-06 0)
(5.52827e-05 9.19573e-06 0)
(5.13721e-05 9.04771e-06 0)
(4.75296e-05 8.87616e-06 0)
(4.37649e-05 8.68037e-06 0)
(4.00883e-05 8.45963e-06 0)
(3.651e-05 8.21321e-06 0)
(3.30407e-05 7.9404e-06 0)
(2.96912e-05 7.64058e-06 0)
(2.64726e-05 7.31329e-06 0)
(2.33958e-05 6.95816e-06 0)
(2.04717e-05 6.57504e-06 0)
(1.77112e-05 6.16393e-06 0)
(1.51252e-05 5.72523e-06 0)
(1.27238e-05 5.25974e-06 0)
(1.05168e-05 4.76885e-06 0)
(8.51274e-06 4.25466e-06 0)
(6.71933e-06 3.7203e-06 0)
(5.14262e-06 3.1702e-06 0)
(3.78655e-06 2.61054e-06 0)
(2.65219e-06 2.04988e-06 0)
(1.73701e-06 1.50003e-06 0)
(1.03406e-06 9.77166e-07 0)
(5.309e-07 5.03284e-07 0)
(2.08151e-07 1.08121e-07 0)
(3.79938e-08 -1.68781e-07 0)
(-1.94656e-08 -2.80156e-07 0)
(-1.26227e-08 -1.85272e-07 0)
(1.20399e-08 9.2302e-07 0)
(5.40029e-08 1.10402e-06 0)
(1.29792e-07 8.26785e-07 0)
(3.15237e-07 4.13218e-07 0)
(6.64225e-07 -1.38325e-07 0)
(1.20848e-06 -8.26564e-07 0)
(1.98685e-06 -1.62558e-06 0)
(3.01695e-06 -2.50074e-06 0)
(4.31595e-06 -3.42125e-06 0)
(5.89751e-06 -4.35618e-06 0)
(7.75776e-06 -5.28328e-06 0)
(9.89719e-06 -6.18489e-06 0)
(1.23074e-05 -7.04806e-06 0)
(1.49773e-05 -7.86382e-06 0)
(1.78976e-05 -8.62979e-06 0)
(2.10513e-05 -9.34093e-06 0)
(2.44243e-05 -9.99842e-06 0)
(2.80024e-05 -1.0603e-05 0)
(3.17683e-05 -1.11554e-05 0)
(3.57081e-05 -1.16569e-05 0)
(3.98055e-05 -1.21096e-05 0)
(4.40458e-05 -1.25157e-05 0)
(4.84152e-05 -1.28769e-05 0)
(5.28995e-05 -1.31952e-05 0)
(5.74852e-05 -1.3473e-05 0)
(6.21586e-05 -1.37123e-05 0)
(6.69078e-05 -1.39146e-05 0)
(7.17211e-05 -1.40815e-05 0)
(7.65863e-05 -1.42149e-05 0)
(8.14928e-05 -1.43167e-05 0)
(8.64299e-05 -1.43881e-05 0)
(9.13884e-05 -1.44301e-05 0)
(9.63581e-05 -1.44448e-05 0)
(0.000101329 -1.44336e-05 0)
(0.000106294 -1.43977e-05 0)
(0.000111243 -1.4338e-05 0)
(0.00011617 -1.42556e-05 0)
(0.000121066 -1.4152e-05 0)
(0.000125925 -1.40285e-05 0)
(0.000130738 -1.38858e-05 0)
(0.000135501 -1.37246e-05 0)
(0.000140207 -1.35458e-05 0)
(0.00014485 -1.33509e-05 0)
(0.000149423 -1.31406e-05 0)
(0.000153923 -1.29153e-05 0)
(0.000158344 -1.26759e-05 0)
(0.000162681 -1.24232e-05 0)
(0.000166929 -1.21582e-05 0)
(0.000171085 -1.18816e-05 0)
(0.000175144 -1.15942e-05 0)
(0.000179103 -1.12961e-05 0)
(0.000182958 -1.09879e-05 0)
(0.000186706 -1.06707e-05 0)
(0.000190342 -1.0345e-05 0)
(0.000193865 -1.00112e-05 0)
(0.000197272 -9.6696e-06 0)
(0.00020056 -9.32074e-06 0)
(0.000203726 -8.96513e-06 0)
(0.000206768 -8.60339e-06 0)
(0.000209685 -8.23603e-06 0)
(0.000212473 -7.86338e-06 0)
(0.000215132 -7.48547e-06 0)
(0.000217659 -7.10271e-06 0)
(0.000220053 -6.71577e-06 0)
(0.000222312 -6.32516e-06 0)
(0.000224435 -5.93104e-06 0)
(0.000226421 -5.53358e-06 0)
(0.000228268 -5.13302e-06 0)
(0.000229975 -4.72953e-06 0)
(0.000231543 -4.32337e-06 0)
(0.000232969 -3.91507e-06 0)
(0.000234252 -3.50507e-06 0)
(0.000235393 -3.09339e-06 0)
(0.00023639 -2.68002e-06 0)
(0.000237244 -2.26524e-06 0)
(0.000237953 -1.84941e-06 0)
(0.000238517 -1.43273e-06 0)
(0.000238936 -1.01545e-06 0)
(0.00023921 -5.97897e-07 0)
(0.000239339 -1.80252e-07 0)
(0.000239322 2.3754e-07 0)
(0.00023916 6.55395e-07 0)
(0.000238853 1.0729e-06 0)
(0.0002384 1.48962e-06 0)
(0.000237803 1.9054e-06 0)
(0.000237061 2.3202e-06 0)
(0.000236175 2.73384e-06 0)
(0.000235145 3.146e-06 0)
(0.000233972 3.55656e-06 0)
(0.000232656 3.96536e-06 0)
(0.000231199 4.37196e-06 0)
(0.0002296 4.77595e-06 0)
(0.000227862 5.17718e-06 0)
(0.000225984 5.5756e-06 0)
(0.000223968 5.97105e-06 0)
(0.000221815 6.36311e-06 0)
(0.000219527 6.75136e-06 0)
(0.000217105 7.13552e-06 0)
(0.00021455 7.51526e-06 0)
(0.000211864 7.89005e-06 0)
(0.000209048 8.25941e-06 0)
(0.000206106 8.62306e-06 0)
(0.000203039 8.98072e-06 0)
(0.000199849 9.33196e-06 0)
(0.000196538 9.67608e-06 0)
(0.00019311 1.00125e-05 0)
(0.000189567 1.03408e-05 0)
(0.000185911 1.06605e-05 0)
(0.000182147 1.0971e-05 0)
(0.000178277 1.12717e-05 0)
(0.000174306 1.15619e-05 0)
(0.000170236 1.18412e-05 0)
(0.000166073 1.21088e-05 0)
(0.000161819 1.2364e-05 0)
(0.00015748 1.26057e-05 0)
(0.000153061 1.28333e-05 0)
(0.000148566 1.30462e-05 0)
(0.000144001 1.32436e-05 0)
(0.000139372 1.34247e-05 0)
(0.000134683 1.35884e-05 0)
(0.000129942 1.37341e-05 0)
(0.000125155 1.38608e-05 0)
(0.000120329 1.39675e-05 0)
(0.00011547 1.40529e-05 0)
(0.000110587 1.41162e-05 0)
(0.000105686 1.41563e-05 0)
(0.000100777 1.41722e-05 0)
(9.58677e-05 1.4163e-05 0)
(9.09668e-05 1.41273e-05 0)
(8.60835e-05 1.40642e-05 0)
(8.12276e-05 1.39726e-05 0)
(7.64088e-05 1.38513e-05 0)
(7.16373e-05 1.36993e-05 0)
(6.69235e-05 1.35153e-05 0)
(6.22784e-05 1.32983e-05 0)
(5.77133e-05 1.30472e-05 0)
(5.32398e-05 1.27609e-05 0)
(4.88693e-05 1.24386e-05 0)
(4.46141e-05 1.20792e-05 0)
(4.04863e-05 1.16818e-05 0)
(3.64985e-05 1.12457e-05 0)
(3.26632e-05 1.07703e-05 0)
(2.89927e-05 1.02553e-05 0)
(2.54995e-05 9.70048e-06 0)
(2.21959e-05 9.10621e-06 0)
(1.90941e-05 8.47323e-06 0)
(1.62052e-05 7.80291e-06 0)
(1.354e-05 7.09747e-06 0)
(1.1108e-05 6.36018e-06 0)
(8.91746e-06 5.59564e-06 0)
(6.97488e-06 4.81025e-06 0)
(5.28441e-06 4.01275e-06 0)
(3.84718e-06 3.215e-06 0)
(2.66078e-06 2.43286e-06 0)
(1.71845e-06 1.68754e-06 0)
(1.00812e-06 1.00715e-06 0)
(5.11132e-07 4.28839e-07 0)
(2.00816e-07 1.12055e-09 0)
(4.21246e-08 -2.19099e-07 0)
(-1.75639e-09 -1.84752e-07 0)
(3.545e-08 8.42813e-07 0)
(1.78928e-07 9.71981e-07 0)
(4.29973e-07 5.96544e-07 0)
(8.38628e-07 3.21e-08 0)
(1.43765e-06 -7.14868e-07 0)
(2.26814e-06 -1.62763e-06 0)
(3.34965e-06 -2.68011e-06 0)
(4.70583e-06 -3.82792e-06 0)
(6.35128e-06 -5.03258e-06 0)
(8.29066e-06 -6.25838e-06 0)
(1.05332e-05 -7.47698e-06 0)
(1.30727e-05 -8.66379e-06 0)
(1.59047e-05 -9.80618e-06 0)
(1.90197e-05 -1.08891e-05 0)
(2.24061e-05 -1.19089e-05 0)
(2.60512e-05 -1.28605e-05 0)
(2.99387e-05 -1.37425e-05 0)
(3.40531e-05 -1.45553e-05 0)
(3.83789e-05 -1.52999e-05 0)
(4.28988e-05 -1.5978e-05 0)
(4.75966e-05 -1.65918e-05 0)
(5.24561e-05 -1.71434e-05 0)
(5.74618e-05 -1.76351e-05 0)
(6.25979e-05 -1.80693e-05 0)
(6.7849e-05 -1.8449e-05 0)
(7.32015e-05 -1.87763e-05 0)
(7.86408e-05 -1.90534e-05 0)
(8.41534e-05 -1.92829e-05 0)
(8.97263e-05 -1.94672e-05 0)
(9.53466e-05 -1.96081e-05 0)
(0.000101003 -1.97072e-05 0)
(0.000106685 -1.97669e-05 0)
(0.00011238 -1.97892e-05 0)
(0.000118078 -1.9776e-05 0)
(0.000123768 -1.97285e-05 0)
(0.000129443 -1.96486e-05 0)
(0.000135093 -1.95379e-05 0)
(0.000140707 -1.93982e-05 0)
(0.00014628 -1.92309e-05 0)
(0.000151802 -1.9037e-05 0)
(0.000157266 -1.88177e-05 0)
(0.000162666 -1.85746e-05 0)
(0.000167993 -1.83092e-05 0)
(0.000173243 -1.80223e-05 0)
(0.000178407 -1.77151e-05 0)
(0.000183482 -1.73881e-05 0)
(0.000188462 -1.70431e-05 0)
(0.00019334 -1.6681e-05 0)
(0.000198112 -1.6303e-05 0)
(0.000202774 -1.59096e-05 0)
(0.000207321 -1.55014e-05 0)
(0.00021175 -1.50797e-05 0)
(0.000216055 -1.46454e-05 0)
(0.000220233 -1.41992e-05 0)
(0.000224281 -1.37416e-05 0)
(0.000228195 -1.32734e-05 0)
(0.000231973 -1.27951e-05 0)
(0.000235612 -1.23075e-05 0)
(0.000239109 -1.18115e-05 0)
(0.000242461 -1.13077e-05 0)
(0.000245666 -1.07963e-05 0)
(0.000248722 -1.02776e-05 0)
(0.000251628 -9.75237e-06 0)
(0.00025438 -9.22127e-06 0)
(0.000256977 -8.68481e-06 0)
(0.000259418 -8.14341e-06 0)
(0.000261701 -7.59745e-06 0)
(0.000263825 -7.04713e-06 0)
(0.000265788 -6.4927e-06 0)
(0.00026759 -5.93472e-06 0)
(0.000269229 -5.37385e-06 0)
(0.000270704 -4.81041e-06 0)