/*--------------------------------*- C++ -*----------------------------------*\
  =========                 |
  \\      /  F ield         | OpenFOAM: The Open Source CFD Toolbox
   \\    /   O peration     | Website:  https://openfoam.org
    \\  /    A nd           | Version:  7
     \\/     M anipulation  |
\*---------------------------------------------------------------------------*/
FoamFile
{
    version     2.0;
    format      ascii;
    class       volVectorField;
    location    "0.075";
    object      U;
}
// * * * * * * * * * * * * * * * * * * * * * * * * * * * * * * * * * * * * * //

dimensions      [0 1 -1 0 0 0 0];

internalField   nonuniform List<vector> 
12800
(
(8.31474e-06 -8.31198e-06 0)
(3.70456e-05 -1.85186e-05 0)
(7.84581e-05 -1.96991e-05 0)
(0.00011314 -1.53434e-05 0)
(0.00012986 -8.30338e-06 0)
(0.000123733 -1.33246e-07 0)
(9.26126e-05 8.34544e-06 0)
(3.5888e-05 1.66951e-05 0)
(-4.60848e-05 2.46807e-05 0)
(-0.00015236 3.21843e-05 0)
(-0.000281636 3.91465e-05 0)
(-0.000432411 4.55411e-05 0)
(-0.000603061 5.1363e-05 0)
(-0.00079191 5.66202e-05 0)
(-0.000997268 6.13254e-05 0)
(-0.00121746 6.54982e-05 0)
(-0.00145084 6.91592e-05 0)
(-0.00169582 7.23313e-05 0)
(-0.00195087 7.50402e-05 0)
(-0.00221451 7.73128e-05 0)
(-0.00248535 7.91735e-05 0)
(-0.00276207 8.06477e-05 0)
(-0.0030434 8.17606e-05 0)
(-0.00332819 8.25359e-05 0)
(-0.00361533 8.2998e-05 0)
(-0.00390379 8.31722e-05 0)
(-0.00419264 8.3081e-05 0)
(-0.004481 8.27461e-05 0)
(-0.00476806 8.21896e-05 0)
(-0.00505309 8.14326e-05 0)
(-0.00533542 8.04944e-05 0)
(-0.00561445 7.93934e-05 0)
(-0.00588962 7.81474e-05 0)
(-0.00616047 7.67732e-05 0)
(-0.00642656 7.52866e-05 0)
(-0.00668751 7.37032e-05 0)
(-0.00694299 7.20371e-05 0)
(-0.00719273 7.03017e-05 0)
(-0.00743649 6.85093e-05 0)
(-0.00767408 6.66709e-05 0)
(-0.00790534 6.47969e-05 0)
(-0.00813014 6.28968e-05 0)
(-0.0083484 6.09801e-05 0)
(-0.00856006 5.90547e-05 0)
(-0.00876508 5.71286e-05 0)
(-0.00896347 5.52078e-05 0)
(-0.00915523 5.32982e-05 0)
(-0.0093404 5.14051e-05 0)
(-0.00951903 4.95335e-05 0)
(-0.0096912 4.76877e-05 0)
(-0.00985698 4.58715e-05 0)
(-0.0100165 4.40877e-05 0)
(-0.0101698 4.23384e-05 0)
(-0.010317 4.06254e-05 0)
(-0.0104584 3.89501e-05 0)
(-0.0105938 3.73143e-05 0)
(-0.0107236 3.5719e-05 0)
(-0.0108479 3.41646e-05 0)
(-0.0109667 3.26511e-05 0)
(-0.0110802 3.1178e-05 0)
(-0.0111886 2.97449e-05 0)
(-0.0112919 2.83507e-05 0)
(-0.0113903 2.69945e-05 0)
(-0.011484 2.56752e-05 0)
(-0.011573 2.43915e-05 0)
(-0.0116575 2.31415e-05 0)
(-0.0117376 2.19229e-05 0)
(-0.0118134 2.07336e-05 0)
(-0.0118849 1.95713e-05 0)
(-0.0119523 1.84338e-05 0)
(-0.0120156 1.73189e-05 0)
(-0.0120749 1.62236e-05 0)
(-0.0121303 1.5145e-05 0)
(-0.0121818 1.40802e-05 0)
(-0.0122295 1.30268e-05 0)
(-0.0122734 1.19816e-05 0)
(-0.0123135 1.09411e-05 0)
(-0.0123498 9.9015e-06 0)
(-0.0123823 8.8596e-06 0)
(-0.012411 7.81223e-06 0)
(-0.012436 6.75618e-06 0)
(-0.012457 5.68822e-06 0)
(-0.0124742 4.60479e-06 0)
(-0.0124874 3.50211e-06 0)
(-0.0124966 2.37646e-06 0)
(-0.0125016 1.22427e-06 0)
(-0.0125024 4.2159e-08 0)
(-0.0124989 -1.17296e-06 0)
(-0.012491 -2.42428e-06 0)
(-0.0124785 -3.71546e-06 0)
(-0.0124612 -5.05015e-06 0)
(-0.0124391 -6.43159e-06 0)
(-0.012412 -7.86262e-06 0)
(-0.0123797 -9.34587e-06 0)
(-0.0123419 -1.08841e-05 0)
(-0.0122986 -1.24801e-05 0)
(-0.0122495 -1.41366e-05 0)
(-0.0121944 -1.58559e-05 0)
(-0.0121332 -1.764e-05 0)
(-0.0120655 -1.94904e-05 0)
(-0.0119911 -2.14083e-05 0)
(-0.0119099 -2.33947e-05 0)
(-0.0118216 -2.54506e-05 0)
(-0.0117259 -2.75761e-05 0)
(-0.0116227 -2.97709e-05 0)
(-0.0115117 -3.20341e-05 0)
(-0.0113927 -3.43642e-05 0)
(-0.0112654 -3.67592e-05 0)
(-0.0111298 -3.92165e-05 0)
(-0.0109855 -4.1733e-05 0)
(-0.0108323 -4.4305e-05 0)
(-0.0106703 -4.69276e-05 0)
(-0.010499 -4.95952e-05 0)
(-0.0103186 -5.23015e-05 0)
(-0.0101288 -5.50387e-05 0)
(-0.0099295 -5.77987e-05 0)
(-0.00972077 -6.05727e-05 0)
(-0.00950255 -6.33509e-05 0)
(-0.00927487 -6.6122e-05 0)
(-0.00903779 -6.88737e-05 0)
(-0.00879142 -7.15926e-05 0)
(-0.00853591 -7.42646e-05 0)
(-0.00827148 -7.68747e-05 0)
(-0.00799838 -7.94065e-05 0)
(-0.00771693 -8.18426e-05 0)
(-0.0074275 -8.41646e-05 0)
(-0.00713054 -8.63531e-05 0)
(-0.00682655 -8.83882e-05 0)
(-0.00651612 -9.02487e-05 0)
(-0.00619989 -9.19127e-05 0)
(-0.00587858 -9.33571e-05 0)
(-0.005553 -9.45584e-05 0)
(-0.00522403 -9.54924e-05 0)
(-0.00489262 -9.61344e-05 0)
(-0.00455983 -9.64593e-05 0)
(-0.00422676 -9.64415e-05 0)
(-0.00389463 -9.60553e-05 0)
(-0.00356473 -9.52745e-05 0)
(-0.00323843 -9.40729e-05 0)
(-0.00291717 -9.24244e-05 0)
(-0.0026025 -9.03033e-05 0)
(-0.002296 -8.76842e-05 0)
(-0.00199936 -8.45425e-05 0)
(-0.00171432 -8.08543e-05 0)
(-0.00144269 -7.65967e-05 0)
(-0.00118631 -7.17478e-05 0)
(-0.00094708 -6.62882e-05 0)
(-0.000726915 -6.02018e-05 0)
(-0.000527735 -5.34774e-05 0)
(-0.000351433 -4.61113e-05 0)
(-0.000199829 -3.81114e-05 0)
(-7.46138e-05 -2.95056e-05 0)
(2.27561e-05 -2.03577e-05 0)
(9.12073e-05 -1.07963e-05 0)
(0.000130311 -1.07217e-06 0)
(0.000140698 8.33593e-06 0)
(0.000124684 1.65262e-05 0)
(8.76247e-05 2.17675e-05 0)
(4.20058e-05 2.08409e-05 0)
(9.62626e-06 9.62502e-06 0)
(1.85337e-05 -3.70462e-05 0)
(7.02814e-05 -7.0225e-05 0)
(0.000131914 -6.76932e-05 0)
(0.000169963 -4.20387e-05 0)
(0.000163154 -3.11763e-06 0)
(0.000100052 4.27332e-05 0)
(-2.56013e-05 9.15491e-05 0)
(-0.000216543 0.000140848 0)
(-0.000472985 0.000189086 0)
(-0.000793422 0.000235304 0)
(-0.00117522 0.000278906 0)
(-0.00161497 0.000319543 0)
(-0.00210883 0.000357015 0)
(-0.00265262 0.000391232 0)
(-0.00324206 0.00042218 0)
(-0.00387278 0.000449891 0)
(-0.00454045 0.000474439 0)
(-0.00524081 0.000495917 0)
(-0.00596972 0.000514445 0)
(-0.00672317 0.000530149 0)
(-0.00749732 0.00054317 0)
(-0.00828851 0.000553649 0)
(-0.00909326 0.000561733 0)
(-0.00990829 0.00056757 0)
(-0.0107305 0.000571308 0)
(-0.011557 0.000573094 0)
(-0.0123852 0.000573072 0)
(-0.0132125 0.000571384 0)
(-0.0140366 0.000568168 0)
(-0.0148555 0.000563557 0)
(-0.0156671 0.000557679 0)
(-0.0164698 0.000550658 0)
(-0.017262 0.000542613 0)
(-0.0180423 0.000533657 0)
(-0.0188094 0.000523896 0)
(-0.0195621 0.000513432 0)
(-0.0202996 0.000502361 0)
(-0.021021 0.000490773 0)
(-0.0217256 0.000478751 0)
(-0.0224128 0.000466376 0)
(-0.023082 0.000453718 0)
(-0.0237331 0.000440846 0)
(-0.0243655 0.000427821 0)
(-0.0249792 0.000414701 0)
(-0.0255739 0.000401538 0)
(-0.0261498 0.000388379 0)
(-0.0267067 0.000375267 0)
(-0.0272447 0.000362239 0)
(-0.0277641 0.000349329 0)
(-0.0282648 0.000336567 0)
(-0.0287473 0.000323979 0)
(-0.0292116 0.000311587 0)
(-0.0296581 0.000299411 0)
(-0.0300871 0.000287465 0)
(-0.0304989 0.000275761 0)
(-0.0308939 0.000264309 0)
(-0.0312724 0.000253116 0)
(-0.0316347 0.000242186 0)
(-0.0319813 0.000231521 0)
(-0.0323126 0.00022112 0)
(-0.0326288 0.00021098 0)
(-0.0329303 0.000201097 0)
(-0.0332176 0.000191464 0)
(-0.033491 0.000182074 0)
(-0.0337507 0.000172916 0)
(-0.0339971 0.00016398 0)
(-0.0342306 0.000155254 0)
(-0.0344513 0.000146722 0)
(-0.0346597 0.00013837 0)
(-0.0348558 0.000130182 0)
(-0.03504 0.000122142 0)
(-0.0352124 0.000114232 0)
(-0.0353732 0.000106432 0)
(-0.0355225 9.87234e-05 0)
(-0.0356605 9.10861e-05 0)
(-0.0357873 8.34995e-05 0)
(-0.0359028 7.59418e-05 0)
(-0.0360071 6.83905e-05 0)
(-0.0361003 6.08229e-05 0)
(-0.0361822 5.32165e-05 0)
(-0.0362528 4.55484e-05 0)
(-0.0363121 3.77958e-05 0)
(-0.0363597 2.9935e-05 0)
(-0.0363956 2.19422e-05 0)
(-0.0364197 1.37937e-05 0)
(-0.0364315 5.46606e-06 0)
(-0.0364309 -3.06397e-06 0)
(-0.0364175 -1.18193e-05 0)
(-0.0363911 -2.08225e-05 0)
(-0.0363512 -3.00958e-05 0)
(-0.0362974 -3.9661e-05 0)
(-0.0362293 -4.95393e-05 0)
(-0.0361465 -5.97507e-05 0)
(-0.0360485 -7.03144e-05 0)
(-0.0359347 -8.12485e-05 0)
(-0.0358046 -9.25697e-05 0)
(-0.0356576 -0.000104293 0)
(-0.0354932 -0.000116434 0)
(-0.0353108 -0.000129003 0)
(-0.0351097 -0.00014201 0)
(-0.0348894 -0.000155463 0)
(-0.0346491 -0.000169367 0)
(-0.0343884 -0.000183724 0)
(-0.0341064 -0.000198534 0)
(-0.0338027 -0.000213792 0)
(-0.0334765 -0.000229492 0)
(-0.0331273 -0.000245622 0)
(-0.0327545 -0.000262166 0)
(-0.0323575 -0.000279105 0)
(-0.0319357 -0.000296414 0)
(-0.0314888 -0.000314065 0)
(-0.0310163 -0.000332024 0)
(-0.0305177 -0.000350251 0)
(-0.0299928 -0.0003687 0)
(-0.0294413 -0.000387321 0)
(-0.028863 -0.000406057 0)
(-0.0282578 -0.000424844 0)
(-0.0276258 -0.000443612 0)
(-0.026967 -0.000462285 0)
(-0.0262818 -0.00048078 0)
(-0.0255703 -0.000499006 0)
(-0.0248332 -0.000516866 0)
(-0.024071 -0.000534259 0)
(-0.0232845 -0.000551073 0)
(-0.0224747 -0.000567193 0)
(-0.0216426 -0.000582496 0)
(-0.0207897 -0.000596852 0)
(-0.0199173 -0.000610127 0)
(-0.0190271 -0.000622182 0)
(-0.018121 -0.00063287 0)
(-0.017201 -0.000642044 0)
(-0.0162696 -0.000649548 0)
(-0.015329 -0.000655227 0)
(-0.0143822 -0.000658921 0)
(-0.0134321 -0.00066047 0)
(-0.0124817 -0.000659711 0)
(-0.0115346 -0.000656482 0)
(-0.0105943 -0.000650624 0)
(-0.00966469 -0.000641977 0)
(-0.00874977 -0.000630388 0)
(-0.00785379 -0.000615708 0)
(-0.00698117 -0.000597794 0)
(-0.00613652 -0.000576516 0)
(-0.00532458 -0.000551755 0)
(-0.00455022 -0.000523407 0)
(-0.0038184 -0.000491392 0)
(-0.00313414 -0.000455659 0)
(-0.00250242 -0.000416195 0)
(-0.00192814 -0.000373044 0)
(-0.00141603 -0.000326326 0)
(-0.000970436 -0.000276274 0)
(-0.000595182 -0.000223286 0)
(-0.000293247 -0.000168016 0)
(-6.63467e-05 -0.00011152 0)
(8.56941e-05 -5.549e-05 0)
(0.000165842 -2.6568e-06 0)
(0.000180978 4.25806e-05 0)
(0.000143756 7.31372e-05 0)
(7.78789e-05 7.78491e-05 0)
(2.08389e-05 4.19908e-05 0)
(1.97843e-05 -7.85381e-05 0)
(6.80319e-05 -0.000131946 0)
(0.000111061 -0.000110541 0)
(0.000110208 -3.9362e-05 0)
(4.0218e-05 6.30169e-05 0)
(-0.000113761 0.00018338 0)
(-0.000360619 0.000312583 0)
(-0.000704757 0.000444422 0)
(-0.00114712 0.00057472 0)
(-0.00168614 0.000700683 0)
(-0.00231849 0.000820468 0)
(-0.00303959 0.000932874 0)
(-0.00384401 0.00103716 0)
(-0.00472576 0.00113292 0)
(-0.00567855 0.00121996 0)
(-0.00669588 0.00129827 0)
(-0.00777124 0.00136794 0)
(-0.00889816 0.00142918 0)
(-0.0100703 0.00148225 0)
(-0.0112815 0.00152745 0)
(-0.0125257 0.00156513 0)
(-0.0137973 0.00159566 0)
(-0.0150908 0.00161943 0)
(-0.0164011 0.00163682 0)
(-0.0177233 0.00164824 0)
(-0.0190529 0.00165409 0)
(-0.0203855 0.00165476 0)
(-0.0217172 0.00165065 0)
(-0.0230443 0.00164214 0)
(-0.0243635 0.0016296 0)
(-0.0256717 0.00161339 0)
(-0.026966 0.00159385 0)
(-0.0282439 0.00157134 0)
(-0.0295031 0.00154615 0)
(-0.0307416 0.00151861 0)
(-0.0319575 0.00148899 0)
(-0.0331492 0.00145758 0)
(-0.0343155 0.00142463 0)
(-0.0354551 0.00139038 0)
(-0.036567 0.00135505 0)
(-0.0376504 0.00131887 0)
(-0.0387046 0.00128201 0)
(-0.0397292 0.00124467 0)
(-0.0407238 0.00120701 0)
(-0.0416881 0.00116917 0)
(-0.0426221 0.0011313 0)
(-0.0435257 0.00109353 0)
(-0.044399 0.00105595 0)
(-0.0452422 0.00101868 0)
(-0.0460556 0.000981798 0)
(-0.0468393 0.000945381 0)
(-0.0475939 0.000909495 0)
(-0.0483198 0.000874198 0)
(-0.0490173 0.000839534 0)
(-0.0496871 0.000805543 0)
(-0.0503296 0.000772252 0)
(-0.0509454 0.000739682 0)
(-0.051535 0.000707848 0)
(-0.0520991 0.000676755 0)
(-0.0526382 0.000646404 0)
(-0.0531529 0.000616787 0)
(-0.0536437 0.000587895 0)
(-0.0541113 0.000559708 0)
(-0.0545561 0.000532205 0)
(-0.0549787 0.00050536 0)
(-0.0553797 0.000479141 0)
(-0.0557594 0.000453514 0)
(-0.0561183 0.000428438 0)
(-0.0564569 0.000403872 0)
(-0.0567755 0.00037977 0)
(-0.0570745 0.000356085 0)
(-0.0573541 0.000332766 0)
(-0.0576148 0.00030976 0)
(-0.0578566 0.000287011 0)
(-0.0580797 0.00026446 0)
(-0.0582844 0.00024205 0)
(-0.0584706 0.000219718 0)
(-0.0586384 0.000197402 0)
(-0.0587878 0.000175037 0)
(-0.0589188 0.000152558 0)
(-0.0590311 0.0001299 0)
(-0.0591247 0.000106997 0)
(-0.0591992 8.37812e-05 0)
(-0.0592546 6.01859e-05 0)
(-0.0592903 3.61439e-05 0)
(-0.059306 1.15886e-05 0)
(-0.0593013 -1.35462e-05 0)
(-0.0592757 -3.93263e-05 0)
(-0.0592287 -6.58157e-05 0)
(-0.0591596 -9.30773e-05 0)
(-0.0590679 -0.000121172 0)
(-0.0589528 -0.000150159 0)
(-0.0588136 -0.000180095 0)
(-0.0586495 -0.000211035 0)
(-0.0584598 -0.000243027 0)
(-0.0582435 -0.00027612 0)
(-0.0579999 -0.000310355 0)
(-0.0577279 -0.000345771 0)
(-0.0574266 -0.000382398 0)
(-0.0570951 -0.000420265 0)
(-0.0567324 -0.000459389 0)
(-0.0563375 -0.000499783 0)
(-0.0559094 -0.000541451 0)
(-0.0554471 -0.000584389 0)
(-0.0549496 -0.000628582 0)
(-0.054416 -0.000674008 0)
(-0.0538453 -0.000720631 0)
(-0.0532366 -0.000768405 0)
(-0.052589 -0.00081727 0)
(-0.0519018 -0.000867154 0)
(-0.0511741 -0.000917971 0)
(-0.0504054 -0.000969621 0)
(-0.049595 -0.00102199 0)
(-0.0487425 -0.00107494 0)
(-0.0478474 -0.00112833 0)
(-0.0469097 -0.00118199 0)
(-0.0459291 -0.00123574 0)
(-0.0449057 -0.00128937 0)
(-0.0438398 -0.00134268 0)
(-0.0427317 -0.0013954 0)
(-0.0415821 -0.0014473 0)
(-0.0403917 -0.00149809 0)
(-0.0391617 -0.00154747 0)
(-0.0378933 -0.00159514 0)
(-0.0365881 -0.00164077 0)
(-0.0352479 -0.00168399 0)
(-0.0338747 -0.00172445 0)
(-0.032471 -0.00176177 0)
(-0.0310394 -0.00179555 0)
(-0.029583 -0.00182539 0)
(-0.0281051 -0.00185085 0)
(-0.0266094 -0.00187152 0)
(-0.0250998 -0.00188695 0)
(-0.0235808 -0.0018967 0)
(-0.0220569 -0.00190032 0)
(-0.0205333 -0.00189737 0)
(-0.0190153 -0.00188741 0)
(-0.0175086 -0.00186999 0)
(-0.0160192 -0.00184469 0)
(-0.0145534 -0.0018111 0)
(-0.0131179 -0.00176884 0)
(-0.0117195 -0.00171753 0)
(-0.0103655 -0.00165686 0)
(-0.00906299 -0.00158654 0)
(-0.00781956 -0.00150635 0)
(-0.00664272 -0.00141615 0)
(-0.00554002 -0.00131589 0)
(-0.00451891 -0.00120567 0)
(-0.0035866 -0.00108576 0)
(-0.00274987 -0.000956673 0)
(-0.00201488 -0.000819274 0)
(-0.00138679 -0.000674914 0)
(-0.00086936 -0.000525649 0)
(-0.000464389 -0.000374567 0)
(-0.000170879 -0.000226277 0)
(1.59967e-05 -8.7645e-05 0)
(0.000106073 3.11563e-05 0)
(0.000115856 0.000115314 0)
(7.34299e-05 0.000143795 0)
(2.18181e-05 8.76487e-05 0)
(1.55622e-05 -0.000113532 0)
(4.28603e-05 -0.000170457 0)
(4.07879e-05 -0.000109892 0)
(-2.82475e-05 2.98464e-05 0)
(-0.000189923 0.000221228 0)
(-0.000460427 0.000443825 0)
(-0.000849828 0.000682775 0)
(-0.00136335 0.000927491 0)
(-0.00200237 0.0011705 0)
(-0.00276529 0.00140659 0)
(-0.00364834 0.00163216 0)
(-0.00464611 0.00184475 0)
(-0.00575205 0.00204278 0)
(-0.00695881 0.00222527 0)
(-0.00825851 0.00239171 0)
(-0.00964299 0.00254193 0)
(-0.011104 0.002676 0)
(-0.0126331 0.00279419 0)
(-0.0142222 0.00289692 0)
(-0.0158633 0.0029847 0)
(-0.0175486 0.00305814 0)
(-0.0192706 0.00311788 0)
(-0.0210222 0.00316464 0)
(-0.0227964 0.00319913 0)
(-0.024587 0.0032221 0)
(-0.0263877 0.00323428 0)
(-0.0281929 0.00323643 0)
(-0.0299973 0.00322928 0)
(-0.0317961 0.00321355 0)
(-0.0335845 0.00318997 0)
(-0.0353585 0.00315921 0)
(-0.0371143 0.00312194 0)
(-0.0388484 0.00307881 0)
(-0.0405577 0.00303043 0)
(-0.0422394 0.0029774 0)
(-0.0438911 0.00292027 0)
(-0.0455105 0.00285956 0)
(-0.0470958 0.00279579 0)
(-0.0486453 0.00272942 0)
(-0.0501577 0.00266089 0)
(-0.0516319 0.00259061 0)
(-0.0530669 0.00251897 0)
(-0.0544619 0.00244631 0)
(-0.0558166 0.00237296 0)
(-0.0571305 0.00229921 0)
(-0.0584033 0.00222534 0)
(-0.0596352 0.00215159 0)
(-0.0608261 0.00207818 0)
(-0.0619762 0.00200531 0)
(-0.0630859 0.00193314 0)
(-0.0641556 0.00186184 0)
(-0.0651856 0.00179153 0)
(-0.0661766 0.00172233 0)
(-0.0671292 0.00165432 0)
(-0.068044 0.00158758 0)
(-0.0689217 0.00152218 0)
(-0.069763 0.00145816 0)
(-0.0705687 0.00139553 0)
(-0.0713395 0.00133433 0)
(-0.0720762 0.00127454 0)
(-0.0727796 0.00121617 0)
(-0.0734503 0.00115918 0)
(-0.0740892 0.00110355 0)
(-0.074697 0.00104924 0)
(-0.0752744 0.00099619 0)
(-0.075822 0.000944346 0)
(-0.0763405 0.000893641 0)
(-0.0768305 0.000843998 0)
(-0.0772925 0.000795338 0)
(-0.077727 0.000747572 0)
(-0.0781346 0.000700608 0)
(-0.0785155 0.000654348 0)
(-0.0788703 0.000608689 0)
(-0.0791991 0.000563524 0)
(-0.0795021 0.000518739 0)
(-0.0797797 0.00047422 0)
(-0.0800319 0.000429848 0)
(-0.0802586 0.000385502 0)
(-0.08046 0.000341057 0)
(-0.0806359 0.000296388 0)
(-0.0807861 0.000251368 0)
(-0.0809105 0.000205868 0)
(-0.0810086 0.000159759 0)
(-0.0810802 0.000112911 0)
(-0.0811248 6.5194e-05 0)
(-0.0811419 1.64792e-05 0)
(-0.0811309 -3.33611e-05 0)
(-0.0810912 -8.44533e-05 0)
(-0.0810219 -0.000136921 0)
(-0.0809224 -0.000190886 0)
(-0.0807918 -0.000246465 0)
(-0.0806292 -0.000303772 0)
(-0.0804335 -0.000362915 0)
(-0.0802038 -0.000423996 0)
(-0.079939 -0.000487112 0)
(-0.079638 -0.000552352 0)
(-0.0792995 -0.000619796 0)
(-0.0789223 -0.000689513 0)
(-0.0785053 -0.000761565 0)
(-0.0780471 -0.000835998 0)
(-0.0775464 -0.000912848 0)
(-0.0770019 -0.000992134 0)
(-0.0764124 -0.00107386 0)
(-0.0757764 -0.00115802 0)
(-0.0750927 -0.00124458 0)
(-0.0743601 -0.00133348 0)
(-0.0735772 -0.00142467 0)
(-0.072743 -0.00151804 0)
(-0.0718562 -0.00161347 0)
(-0.0709159 -0.00171083 0)
(-0.069921 -0.00180994 0)
(-0.0688708 -0.0019106 0)
(-0.0677644 -0.00201259 0)
(-0.0666014 -0.00211564 0)
(-0.0653812 -0.00221947 0)
(-0.0641035 -0.00232375 0)
(-0.0627684 -0.00242812 0)
(-0.0613759 -0.00253219 0)
(-0.0599263 -0.00263553 0)
(-0.0584203 -0.00273767 0)
(-0.0568588 -0.00283812 0)
(-0.0552428 -0.00293634 0)
(-0.0535739 -0.00303175 0)
(-0.0518538 -0.00312375 0)
(-0.0500846 -0.0032117 0)
(-0.0482688 -0.00329493 0)
(-0.0464092 -0.00337272 0)
(-0.0445092 -0.00344435 0)
(-0.0425723 -0.00350906 0)
(-0.0406025 -0.00356606 0)
(-0.0386045 -0.00361455 0)
(-0.036583 -0.00365371 0)
(-0.0345435 -0.0036827 0)
(-0.0324917 -0.00370067 0)
(-0.030434 -0.00370679 0)
(-0.028377 -0.00370021 0)
(-0.0263278 -0.0036801 0)
(-0.024294 -0.00364565 0)
(-0.0222836 -0.00359606 0)
(-0.0203048 -0.00353058 0)
(-0.0183665 -0.00344852 0)
(-0.0164775 -0.00334923 0)
(-0.0146473 -0.00323215 0)
(-0.0128852 -0.00309681 0)
(-0.011201 -0.00294289 0)
(-0.00960435 -0.00277022 0)
(-0.00810481 -0.00257885 0)
(-0.0067118 -0.00236911 0)
(-0.00543433 -0.00214169 0)
(-0.00428077 -0.00189778 0)
(-0.00325854 -0.00163923 0)
(-0.00237375 -0.00136881 0)
(-0.00163066 -0.00109055 0)
(-0.0010311 -0.000810238 0)
(-0.000573563 -0.000536151 0)
(-0.00025229 -0.000280026 0)
(-5.61032e-05 -5.84135e-05 0)
(3.2999e-05 0.000105805 0)
(4.34651e-05 0.000181549 0)
(1.67089e-05 0.000124975 0)
(8.68514e-06 -0.000130879 0)
(4.46025e-06 -0.00016456 0)
(-6.07847e-05 -4.04973e-05 0)
(-0.000218734 0.000191354 0)
(-0.000492881 0.000495164 0)
(-0.000899197 0.000843695 0)
(-0.00144774 0.0012165 0)
(-0.00214377 0.00159851 0)
(-0.0029886 0.00197874 0)
(-0.00398045 0.00234924 0)
(-0.00511509 0.00270433 0)
(-0.00638646 0.00304006 0)
(-0.00778711 0.00335372 0)
(-0.00930862 0.0036436 0)
(-0.0109419 0.00390869 0)
(-0.0126773 0.00414854 0)
(-0.0145052 0.00436313 0)
(-0.0164158 0.00455276 0)
(-0.0183993 0.00471797 0)
(-0.020446 0.00485949 0)
(-0.0225468 0.00497819 0)
(-0.0246925 0.00507507 0)
(-0.0268744 0.00515117 0)
(-0.0290844 0.00520761 0)
(-0.0313145 0.00524553 0)
(-0.0335574 0.00526609 0)
(-0.035806 0.00527047 0)
(-0.0380539 0.00525981 0)
(-0.040295 0.00523528 0)
(-0.0425237 0.005198 0)
(-0.0447349 0.00514906 0)
(-0.0469238 0.00508953 0)
(-0.0490862 0.00502043 0)
(-0.0512182 0.00494277 0)
(-0.0533164 0.00485748 0)
(-0.0553775 0.00476546 0)
(-0.057399 0.00466758 0)
(-0.0593784 0.00456462 0)
(-0.0613137 0.00445737 0)
(-0.0632032 0.00434652 0)
(-0.0650453 0.00423275 0)
(-0.0668389 0.00411668 0)
(-0.0685832 0.00399887 0)
(-0.0702773 0.00387986 0)
(-0.0719208 0.00376012 0)
(-0.0735135 0.00364011 0)
(-0.0750552 0.00352021 0)
(-0.076546 0.0034008 0)
(-0.0779861 0.00328218 0)
(-0.0793758 0.00316465 0)
(-0.0807156 0.00304846 0)
(-0.0820061 0.00293382 0)
(-0.0832479 0.00282091 0)
(-0.0844417 0.0027099 0)
(-0.0855884 0.0026009 0)
(-0.0866886 0.00249402 0)
(-0.0877434 0.00238933 0)
(-0.0887535 0.00228688 0)
(-0.08972 0.00218669 0)
(-0.0906438 0.00208877 0)
(-0.0915257 0.00199311 0)
(-0.0923667 0.00189967 0)
(-0.0931677 0.00180841 0)
(-0.0939297 0.00171926 0)
(-0.0946533 0.00163214 0)
(-0.0953396 0.00154695 0)
(-0.0959891 0.00146359 0)
(-0.0966028 0.00138194 0)
(-0.0971812 0.00130187 0)
(-0.0977249 0.00122323 0)
(-0.0982346 0.00114588 0)
(-0.0987108 0.00106966 0)
(-0.0991538 0.0009944 0)
(-0.099564 0.000919933 0)
(-0.0999418 0.000846074 0)
(-0.100287 0.000772639 0)
(-0.100601 0.000699435 0)
(-0.100882 0.000626267 0)
(-0.101131 0.000552934 0)
(-0.101348 0.000479234 0)
(-0.101532 0.000404962 0)
(-0.101684 0.000329911 0)
(-0.101803 0.000253871 0)
(-0.101888 0.000176635 0)
(-0.101939 9.79927e-05 0)
(-0.101955 1.77362e-05 0)
(-0.101936 -6.434e-05 0)
(-0.10188 -0.000148439 0)
(-0.101788 -0.000234759 0)
(-0.101657 -0.000323494 0)
(-0.101487 -0.000414833 0)
(-0.101277 -0.000508957 0)
(-0.101025 -0.00060604 0)
(-0.100731 -0.000706245 0)
(-0.100392 -0.000809725 0)
(-0.100009 -0.000916619 0)
(-0.0995777 -0.00102706 0)
(-0.0990985 -0.00114114 0)
(-0.0985694 -0.00125898 0)
(-0.0979889 -0.00138063 0)
(-0.0973553 -0.00150615 0)
(-0.096667 -0.00163557 0)
(-0.0959225 -0.0017689 0)
(-0.0951202 -0.0019061 0)
(-0.0942585 -0.00204713 0)
(-0.0933359 -0.0021919 0)
(-0.0923508 -0.00234029 0)
(-0.0913019 -0.00249215 0)
(-0.0901878 -0.00264727 0)
(-0.0890073 -0.00280542 0)
(-0.0877591 -0.00296633 0)
(-0.0864424 -0.00312966 0)
(-0.0850562 -0.00329504 0)
(-0.0835999 -0.00346205 0)
(-0.0820729 -0.00363021 0)
(-0.0804749 -0.00379901 0)
(-0.078806 -0.00396785 0)
(-0.0770662 -0.00413609 0)
(-0.0752562 -0.00430305 0)
(-0.0733767 -0.00446798 0)
(-0.0714287 -0.00463005 0)
(-0.0694139 -0.00478841 0)
(-0.0673339 -0.00494213 0)
(-0.065191 -0.00509024 0)
(-0.062988 -0.0052317 0)
(-0.0607278 -0.00536544 0)
(-0.058414 -0.00549032 0)
(-0.0560506 -0.00560516 0)
(-0.0536422 -0.00570875 0)
(-0.0511938 -0.00579984 0)
(-0.0487108 -0.00587714 0)
(-0.0461993 -0.00593934 0)
(-0.043666 -0.00598512 0)
(-0.0411179 -0.00601313 0)
(-0.0385627 -0.00602206 0)
(-0.0360086 -0.00601056 0)
(-0.0334643 -0.00597733 0)
(-0.0309389 -0.00592112 0)
(-0.0284421 -0.00584069 0)
(-0.0259841 -0.0057349 0)
(-0.0235753 -0.00560268 0)
(-0.0212266 -0.00544308 0)
(-0.0189492 -0.0052553 0)
(-0.0167543 -0.00503869 0)
(-0.0146535 -0.00479285 0)
(-0.0126582 -0.00451766 0)
(-0.0107798 -0.00421336 0)
(-0.00902912 -0.00388065 0)
(-0.00741673 -0.00352084 0)
(-0.0059522 -0.00313602 0)
(-0.00464396 -0.00272932 0)
(-0.00349887 -0.00230524 0)
(-0.0025217 -0.00187014 0)
(-0.00171445 -0.00143287 0)
(-0.00107568 -0.00100563 0)
(-0.000599562 -0.000605126 0)
(-0.000274915 -0.000254129 0)
(-8.39828e-05 1.69194e-05 0)
(-9.15634e-07 0.000167736 0)
(8.71944e-06 0.000141664 0)
(6.6513e-07 -0.000125668 0)
(-4.10579e-05 -0.000102636 0)
(-0.000180986 0.000112904 0)
(-0.000441858 0.000461992 0)
(-0.000843053 0.000901695 0)
(-0.00139914 0.0013987 0)
(-0.00211922 0.0019274 0)
(-0.0030078 0.00246844 0)
(-0.00406569 0.0030073 0)
(-0.00529061 0.00353322 0)
(-0.00667777 0.00403832 0)
(-0.00822044 0.00451693 0)
(-0.0099104 0.00496509 0)
(-0.0117383 0.00538018 0)
(-0.013694 0.00576058 0)
(-0.0157668 0.00610547 0)
(-0.0179457 0.00641464 0)
(-0.0202197 0.00668836 0)
(-0.0225777 0.00692729 0)
(-0.0250088 0.00713235 0)
(-0.0275023 0.0073047 0)
(-0.0300479 0.00744567 0)
(-0.0326355 0.00755671 0)
(-0.0352557 0.00763935 0)
(-0.0378993 0.00769519 0)
(-0.0405577 0.00772588 0)
(-0.0432229 0.00773305 0)
(-0.0458872 0.00771837 0)
(-0.0485435 0.00768347 0)
(-0.0511855 0.00762995 0)
(-0.0538069 0.00755941 0)
(-0.0564023 0.00747336 0)
(-0.0589666 0.0073733 0)
(-0.0614953 0.00726065 0)
(-0.0639843 0.00713677 0)
(-0.0664298 0.00700299 0)
(-0.0688288 0.00686053 0)
(-0.0711783 0.00671057 0)
(-0.0734758 0.00655422 0)
(-0.0757194 0.00639252 0)
(-0.0779073 0.00622645 0)
(-0.080038 0.00605689 0)
(-0.0821105 0.00588471 0)
(-0.0841238 0.00571066 0)
(-0.0860773 0.00553546 0)
(-0.0879708 0.00535975 0)
(-0.089804 0.00518412 0)
(-0.0915771 0.0050091 0)
(-0.0932901 0.00483517 0)
(-0.0949435 0.00466275 0)
(-0.0965377 0.0044922 0)
(-0.0980735 0.00432385 0)
(-0.0995515 0.00415796 0)
(-0.100973 0.00399478 0)
(-0.102338 0.00383448 0)
(-0.103648 0.00367722 0)
(-0.104903 0.0035231 0)
(-0.106106 0.00337221 0)
(-0.107257 0.00322458 0)
(-0.108357 0.00308023 0)
(-0.109407 0.00293914 0)
(-0.110408 0.00280126 0)
(-0.111362 0.00266652 0)
(-0.112269 0.00253484 0)
(-0.11313 0.0024061 0)
(-0.113947 0.00228016 0)
(-0.11472 0.00215686 0)
(-0.115449 0.00203604 0)
(-0.116137 0.0019175 0)
(-0.116783 0.00180105 0)
(-0.117388 0.00168646 0)
(-0.117953 0.00157351 0)
(-0.118479 0.00146195 0)
(-0.118965 0.00135153 0)
(-0.119412 0.00124199 0)
(-0.11982 0.00113306 0)
(-0.12019 0.00102445 0)
(-0.120522 0.000915898 0)
(-0.120814 0.000807096 0)
(-0.121069 0.000697755 0)
(-0.121284 0.000587575 0)
(-0.12146 0.000476256 0)
(-0.121596 0.000363495 0)
(-0.121692 0.000248989 0)
(-0.121747 0.000132433 0)
(-0.12176 1.35265e-05 0)
(-0.121732 -0.000108029 0)
(-0.121659 -0.000232527 0)
(-0.121542 -0.000360255 0)
(-0.12138 -0.000491495 0)
(-0.121171 -0.000626518 0)
(-0.120914 -0.000765586 0)
(-0.120607 -0.000908949 0)
(-0.12025 -0.00105684 0)
(-0.119839 -0.00120948 0)
(-0.119375 -0.00136708 0)
(-0.118855 -0.0015298 0)
(-0.118278 -0.00169781 0)
(-0.117641 -0.00187123 0)
(-0.116943 -0.00205018 0)
(-0.116182 -0.00223471 0)
(-0.115356 -0.00242488 0)
(-0.114464 -0.00262067 0)
(-0.113503 -0.00282205 0)
(-0.112472 -0.00302893 0)
(-0.111369 -0.00324119 0)
(-0.110192 -0.00345864 0)
(-0.10894 -0.00368105 0)
(-0.107611 -0.00390813 0)
(-0.106203 -0.00413953 0)
(-0.104716 -0.00437483 0)
(-0.103148 -0.00461356 0)
(-0.101499 -0.00485516 0)
(-0.0997662 -0.00509902 0)
(-0.0979508 -0.00534445 0)
(-0.096052 -0.00559066 0)
(-0.0940699 -0.00583682 0)
(-0.0920046 -0.00608198 0)
(-0.0898568 -0.00632515 0)
(-0.0876275 -0.00656521 0)
(-0.0853181 -0.006801 0)
(-0.0829302 -0.00703125 0)
(-0.0804661 -0.00725464 0)
(-0.0779284 -0.00746973 0)
(-0.0753203 -0.00767503 0)
(-0.0726454 -0.00786898 0)
(-0.0699078 -0.00804994 0)
(-0.0671124 -0.00821621 0)
(-0.0642643 -0.00836604 0)
(-0.0613696 -0.00849762 0)
(-0.0584345 -0.0086091 0)
(-0.0554663 -0.00869861 0)
(-0.0524726 -0.00876423 0)
(-0.0494617 -0.00880407 0)
(-0.0464424 -0.00881622 0)
(-0.0434243 -0.0087988 0)
(-0.0404175 -0.00874997 0)
(-0.0374326 -0.00866793 0)
(-0.0344807 -0.00855099 0)
(-0.0315735 -0.00839755 0)
(-0.028723 -0.00820616 0)
(-0.0259418 -0.00797554 0)
(-0.0232424 -0.00770463 0)
(-0.020638 -0.00739265 0)
(-0.0181414 -0.00703915 0)
(-0.0157657 -0.00664413 0)
(-0.0135235 -0.00620811 0)
(-0.0114273 -0.0057323 0)
(-0.00948846 -0.00521878 0)
(-0.00771781 -0.00467071 0)
(-0.00612466 -0.0040927 0)
(-0.00471661 -0.0034912 0)
(-0.00349901 -0.00287506 0)
(-0.00247443 -0.00225631 0)
(-0.00164198 -0.00165105 0)
(-0.000996611 -0.00108078 0)
(-0.000528228 -0.00057397 0)
(-0.000220661 -0.000167737 0)
(-5.27705e-05 8.98653e-05 0)
(-4.44448e-07 0.000132478 0)
(-7.71876e-06 -9.56132e-05 0)
(-8.99452e-05 2.20532e-05 0)
(-0.000311266 0.000360034 0)
(-0.000683823 0.00085303 0)
(-0.00122167 0.00145245 0)
(-0.00193706 0.00211987 0)
(-0.00283734 0.00282513 0)
(-0.00392567 0.00354495 0)
(-0.00520186 0.00426149 0)
(-0.0066628 0.00496123 0)
(-0.00830297 0.00563406 0)
(-0.0101149 0.00627255 0)
(-0.0120895 0.0068714 0)
(-0.0142167 0.00742697 0)
(-0.0164853 0.00793694 0)
(-0.0188837 0.00840004 0)
(-0.0213998 0.00881582 0)
(-0.0240216 0.00918449 0)
(-0.0267368 0.00950676 0)
(-0.0295334 0.00978375 0)
(-0.0323994 0.0100169 0)
(-0.0353234 0.0102079 0)
(-0.0382944 0.0103586 0)
(-0.0413015 0.010471 0)
(-0.0443347 0.0105471 0)
(-0.0473843 0.0105893 0)
(-0.0504412 0.0105995 0)
(-0.0534969 0.0105801 0)
(-0.0565433 0.0105332 0)
(-0.0595731 0.010461 0)
(-0.0625795 0.0103655 0)
(-0.0655562 0.0102489 0)
(-0.0684975 0.0101131 0)
(-0.0713981 0.00996003 0)
(-0.0742534 0.00979162 0)
(-0.0770593 0.00960959 0)
(-0.079812 0.00941562 0)
(-0.0825084 0.00921132 0)
(-0.0851455 0.00899819 0)
(-0.087721 0.00877764 0)
(-0.0902329 0.008551 0)
(-0.0926796 0.0083195 0)
(-0.0950597 0.00808429 0)
(-0.0973722 0.00784642 0)
(-0.0996164 0.00760687 0)
(-0.101792 0.00736651 0)
(-0.103898 0.00712617 0)
(-0.105936 0.00688655 0)
(-0.107905 0.00664832 0)
(-0.109806 0.00641205 0)
(-0.111638 0.00617825 0)
(-0.113404 0.00594736 0)
(-0.115104 0.00571976 0)
(-0.116738 0.00549578 0)
(-0.118308 0.00527566 0)
(-0.119814 0.00505962 0)
(-0.121259 0.00484782 0)
(-0.122642 0.00464035 0)
(-0.123966 0.00443729 0)
(-0.125231 0.00423865 0)
(-0.126439 0.00404441 0)
(-0.12759 0.00385452 0)
(-0.128687 0.00366889 0)
(-0.12973 0.00348738 0)
(-0.13072 0.00330985 0)
(-0.131658 0.00313611 0)
(-0.132546 0.00296595 0)
(-0.133384 0.00279915 0)
(-0.134173 0.00263544 0)
(-0.134915 0.00247455 0)
(-0.135609 0.00231619 0)
(-0.136257 0.00216004 0)
(-0.136859 0.00200578 0)
(-0.137415 0.00185306 0)
(-0.137926 0.00170152 0)
(-0.138392 0.00155081 0)
(-0.138814 0.00140054 0)
(-0.139191 0.00125032 0)
(-0.139523 0.00109977 0)
(-0.139811 0.000948475 0)
(-0.140054 0.000796036 0)
(-0.140251 0.000642043 0)
(-0.140402 0.000486086 0)
(-0.140506 0.000327752 0)
(-0.140564 0.00016663 0)
(-0.140573 2.31277e-06 0)
(-0.140533 -0.000165605 0)
(-0.140443 -0.00033752 0)
(-0.140302 -0.000513823 0)
(-0.140108 -0.000694893 0)
(-0.13986 -0.000881097 0)
(-0.139557 -0.00107279 0)
(-0.139196 -0.0012703 0)
(-0.138778 -0.00147396 0)
(-0.138298 -0.00168405 0)
(-0.137757 -0.00190084 0)
(-0.137151 -0.00212458 0)
(-0.136479 -0.00235547 0)
(-0.13574 -0.00259368 0)
(-0.13493 -0.00283935 0)
(-0.134048 -0.00309257 0)
(-0.133092 -0.00335338 0)
(-0.132059 -0.00362177 0)
(-0.130948 -0.0038977 0)
(-0.129757 -0.00418103 0)
(-0.128484 -0.00447158 0)
(-0.127126 -0.0047691 0)
(-0.125682 -0.00507327 0)
(-0.124151 -0.00538369 0)
(-0.12253 -0.00569986 0)
(-0.120818 -0.00602123 0)
(-0.119015 -0.00634714 0)
(-0.117118 -0.00667683 0)
(-0.115127 -0.00700946 0)
(-0.113041 -0.00734408 0)
(-0.110861 -0.00767963 0)
(-0.108586 -0.00801496 0)
(-0.106217 -0.00834879 0)
(-0.103753 -0.00867976 0)
(-0.101198 -0.00900637 0)
(-0.0985509 -0.00932703 0)
(-0.0958151 -0.00964002 0)
(-0.0929929 -0.00994353 0)
(-0.0900871 -0.0102356 0)
(-0.0871016 -0.0105143 0)
(-0.0840402 -0.0107775 0)
(-0.0809079 -0.0110228 0)
(-0.07771 -0.0112482 0)
(-0.0744523 -0.0114511 0)
(-0.0711417 -0.0116292 0)
(-0.0677854 -0.0117799 0)