/*--------------------------------*- C++ -*----------------------------------*\
  =========                 |
  \\      /  F ield         | OpenFOAM: The Open Source CFD Toolbox
   \\    /   O peration     | Website:  https://openfoam.org
    \\  /    A nd           | Version:  7
     \\/     M anipulation  |
\*---------------------------------------------------------------------------*/
FoamFile
{
    version     2.0;
    format      ascii;
    class       volScalarField;
    location    "0.3125";
    object      p;
}
// * * * * * * * * * * * * * * * * * * * * * * * * * * * * * * * * * * * * * //

dimensions      [0 2 -2 0 0 0 0];

internalField   nonuniform List<scalar> 
51200
(
-4.71912e-08
-1.18628e-06
-2.62843e-06
-3.87259e-06
-4.79717e-06
-5.57445e-06
-6.28892e-06
-6.98332e-06
-7.68751e-06
-8.42163e-06
-9.19674e-06
-1.0019e-05
-1.08926e-05
-1.18194e-05
-1.27991e-05
-1.38325e-05
-1.49206e-05
-1.60631e-05
-1.72561e-05
-1.84945e-05
-1.97738e-05
-2.10905e-05
-2.24425e-05
-2.38276e-05
-2.52433e-05
-2.66853e-05
-2.81476e-05
-2.96274e-05
-3.11245e-05
-3.26375e-05
-3.41642e-05
-3.57014e-05
-3.72443e-05
-3.87892e-05
-4.03342e-05
-4.18783e-05
-4.34202e-05
-4.49579e-05
-4.64898e-05
-4.80151e-05
-4.95325e-05
-5.1041e-05
-5.25405e-05
-5.4031e-05
-5.5512e-05
-5.6982e-05
-5.84397e-05
-5.98842e-05
-6.13138e-05
-6.27274e-05
-6.4126e-05
-6.55106e-05
-6.68816e-05
-6.82391e-05
-6.95826e-05
-7.09134e-05
-7.22322e-05
-7.35381e-05
-7.48305e-05
-7.61087e-05
-7.73729e-05
-7.8624e-05
-7.98632e-05
-8.10926e-05
-8.23131e-05
-8.35243e-05
-8.47254e-05
-8.59156e-05
-8.70956e-05
-8.82686e-05
-8.94379e-05
-9.06053e-05
-9.17716e-05
-9.29364e-05
-9.40979e-05
-9.52552e-05
-9.64091e-05
-9.75622e-05
-9.87171e-05
-9.98745e-05
-0.000101034
-0.000102196
-0.000103364
-0.000104536
-0.000105715
-0.000106898
-0.000108089
-0.000109288
-0.000110495
-0.000111712
-0.000112938
-0.000114174
-0.000115419
-0.000116675
-0.000117941
-0.00011922
-0.000120512
-0.000121816
-0.000123131
-0.000124461
-0.000125806
-0.000127168
-0.000128545
-0.000129933
-0.000131332
-0.000132745
-0.000134173
-0.000135617
-0.000137075
-0.000138547
-0.000140029
-0.000141521
-0.000143023
-0.000144538
-0.000146066
-0.000147604
-0.00014915
-0.0001507
-0.000152253
-0.000153807
-0.000155363
-0.000156919
-0.000158474
-0.000160022
-0.000161562
-0.000163092
-0.000164613
-0.000166121
-0.000167613
-0.000169084
-0.000170532
-0.000171955
-0.000173352
-0.000174719
-0.000176051
-0.000177343
-0.000178594
-0.000179801
-0.000180959
-0.000182065
-0.000183114
-0.000184102
-0.000185025
-0.000185882
-0.000186669
-0.000187382
-0.000188017
-0.000188567
-0.00018903
-0.000189405
-0.000189691
-0.000189888
-0.000189995
-0.000190016
-0.000189957
-0.000189829
-0.00018965
-0.000189451
-0.000189276
-0.000189178
-1.42374e-06
-2.36343e-06
-3.47991e-06
-4.48558e-06
-5.33124e-06
-6.08091e-06
-6.78398e-06
-7.47152e-06
-8.16616e-06
-8.88654e-06
-9.64401e-06
-1.04454e-05
-1.12962e-05
-1.21986e-05
-1.31517e-05
-1.41537e-05
-1.52051e-05
-1.63067e-05
-1.74576e-05
-1.86541e-05
-1.98917e-05
-2.11669e-05
-2.24757e-05
-2.38159e-05
-2.51868e-05
-2.65854e-05
-2.80077e-05
-2.94495e-05
-3.09077e-05
-3.23807e-05
-3.38673e-05
-3.53654e-05
-3.68727e-05
-3.83857e-05
-3.99012e-05
-4.14178e-05
-4.29337e-05
-4.44467e-05
-4.59556e-05
-4.74596e-05
-4.89576e-05
-5.0449e-05
-5.19334e-05
-5.34103e-05
-5.48795e-05
-5.63404e-05
-5.77913e-05
-5.92316e-05
-6.06605e-05
-6.20763e-05
-6.34788e-05
-6.48688e-05
-6.62469e-05
-6.76127e-05
-6.89657e-05
-7.03067e-05
-7.16367e-05
-7.29562e-05
-7.42655e-05
-7.55638e-05
-7.68502e-05
-7.81252e-05
-7.93889e-05
-8.06419e-05
-8.18852e-05
-8.31202e-05
-8.43479e-05
-8.55679e-05
-8.67801e-05
-8.79858e-05
-8.91866e-05
-9.03838e-05
-9.15793e-05
-9.27747e-05
-9.39695e-05
-9.51622e-05
-9.63524e-05
-9.75407e-05
-9.87292e-05
-9.99197e-05
-0.000101113
-0.000102309
-0.000103509
-0.000104714
-0.000105925
-0.000107142
-0.000108365
-0.000109594
-0.000110831
-0.000112076
-0.00011333
-0.000114594
-0.000115866
-0.000117148
-0.000118438
-0.000119739
-0.000121052
-0.000122378
-0.000123714
-0.000125061
-0.00012642
-0.000127793
-0.000129181
-0.00013058
-0.000131991
-0.000133414
-0.000134847
-0.000136291
-0.000137748
-0.000139217
-0.000140697
-0.000142187
-0.000143686
-0.000145193
-0.000146707
-0.00014823
-0.00014976
-0.000151293
-0.000152828
-0.000154363
-0.000155896
-0.000157426
-0.000158952
-0.000160472
-0.000161984
-0.000163482
-0.000164967
-0.000166439
-0.000167894
-0.000169329
-0.000170739
-0.000172123
-0.000173478
-0.000174803
-0.000176093
-0.000177344
-0.000178552
-0.000179717
-0.000180834
-0.000181899
-0.000182909
-0.00018386
-0.000184749
-0.000185573
-0.00018633
-0.000187016
-0.000187628
-0.000188162
-0.000188614
-0.000188984
-0.000189273
-0.00018948
-0.000189608
-0.00018966
-0.000189644
-0.000189568
-0.000189447
-0.000189304
-0.000189169
-0.00018907
-3.23955e-06
-3.76981e-06
-4.46336e-06
-5.19942e-06
-5.90457e-06
-6.57745e-06
-7.23553e-06
-7.89343e-06
-8.56532e-06
-9.26519e-06
-1.00018e-05
-1.07807e-05
-1.16061e-05
-1.24826e-05
-1.34104e-05
-1.43873e-05
-1.54108e-05
-1.64809e-05
-1.75973e-05
-1.87583e-05
-1.99617e-05
-2.12032e-05
-2.2478e-05
-2.37837e-05
-2.5118e-05
-2.64801e-05
-2.78681e-05
-2.92775e-05
-3.07049e-05
-3.21476e-05
-3.36028e-05
-3.507e-05
-3.6548e-05
-3.80338e-05
-3.95246e-05
-4.10181e-05
-4.25119e-05
-4.40042e-05
-4.54941e-05
-4.69805e-05
-4.84633e-05
-4.99419e-05
-5.14149e-05
-5.28819e-05
-5.43429e-05
-5.57969e-05
-5.72424e-05
-5.86791e-05
-6.01068e-05
-6.15238e-05
-6.29293e-05
-6.43235e-05
-6.57068e-05
-6.70802e-05
-6.84432e-05
-6.97949e-05
-7.11357e-05
-7.24668e-05
-7.37895e-05
-7.51034e-05
-7.64078e-05
-7.7703e-05
-7.89882e-05
-8.02626e-05
-8.15268e-05
-8.27823e-05
-8.40311e-05
-8.52747e-05
-8.65133e-05
-8.77473e-05
-8.89768e-05
-9.02022e-05
-9.14244e-05
-9.26453e-05
-9.38658e-05
-9.50862e-05
-9.63062e-05
-9.75253e-05
-9.87439e-05
-9.99639e-05
-0.000101186
-0.000102411
-0.000103639
-0.000104871
-0.000106109
-0.000107354
-0.000108605
-0.000109862
-0.000111125
-0.000112395
-0.000113672
-0.000114958
-0.000116253
-0.000117558
-0.000118871
-0.000120191
-0.000121522
-0.000122864
-0.000124217
-0.000125581
-0.000126955
-0.00012834
-0.000129737
-0.000131146
-0.000132566
-0.000133996
-0.000135435
-0.000136883
-0.00013834
-0.000139807
-0.000141285
-0.000142773
-0.000144268
-0.00014577
-0.000147277
-0.000148788
-0.000150304
-0.000151823
-0.000153343
-0.000154862
-0.000156377
-0.000157886
-0.00015939
-0.000160886
-0.000162374
-0.000163849
-0.000165307
-0.000166749
-0.000168173
-0.000169577
-0.000170958
-0.00017231
-0.000173633
-0.000174924
-0.00017618
-0.000177398
-0.000178573
-0.000179704
-0.000180787
-0.000181821
-0.0001828
-0.000183723
-0.000184585
-0.000185384
-0.000186117
-0.000186781
-0.000187376
-0.000187896
-0.00018834
-0.000188707
-0.000188997
-0.000189211
-0.000189352
-0.000189424
-0.000189431
-0.000189383
-0.000189293
-0.000189172
-0.000189035
-0.000188893
-4.88372e-06
-5.06364e-06
-5.44416e-06
-5.94909e-06
-6.50038e-06
-7.07165e-06
-7.66122e-06
-8.27251e-06
-8.91003e-06
-9.58184e-06
-1.02947e-05
-1.10514e-05
-1.18535e-05
-1.27037e-05
-1.36045e-05
-1.45558e-05
-1.55551e-05
-1.66001e-05
-1.76888e-05
-1.88203e-05
-1.99927e-05
-2.12034e-05
-2.24493e-05
-2.37263e-05
-2.50317e-05
-2.6364e-05
-2.77212e-05
-2.91008e-05
-3.05007e-05
-3.19175e-05
-3.33482e-05
-3.47913e-05
-3.62452e-05
-3.77083e-05
-3.91777e-05
-4.06508e-05
-4.21256e-05
-4.36006e-05
-4.50742e-05
-4.65456e-05
-4.80151e-05
-4.94822e-05
-5.09459e-05
-5.24054e-05
-5.38602e-05
-5.53095e-05
-5.67518e-05
-5.81859e-05
-5.96119e-05
-6.10294e-05
-6.24376e-05
-6.38359e-05
-6.52242e-05
-6.66039e-05
-6.79754e-05
-6.93377e-05
-7.06906e-05
-7.20343e-05
-7.33696e-05
-7.46966e-05
-7.60154e-05
-7.73266e-05
-7.863e-05
-7.99246e-05
-8.12102e-05
-8.24869e-05
-8.37559e-05
-8.50196e-05
-8.62794e-05
-8.75359e-05
-8.87899e-05
-9.00417e-05
-9.1291e-05
-9.25378e-05
-9.37828e-05
-9.50272e-05
-9.62719e-05
-9.75167e-05
-9.87615e-05
-0.000100008
-0.000101257
-0.000102508
-0.000103763
-0.000105021
-0.000106284
-0.000107553
-0.000108828
-0.000110109
-0.000111396
-0.000112689
-0.000113988
-0.000115295
-0.00011661
-0.000117934
-0.000119267
-0.000120608
-0.000121956
-0.000123314
-0.000124682
-0.00012606
-0.000127448
-0.000128846
-0.000130252
-0.000131669
-0.000133096
-0.000134533
-0.000135978
-0.000137432
-0.000138892
-0.000140361
-0.000141836
-0.00014332
-0.000144812
-0.000146309
-0.000147811
-0.000149315
-0.00015082
-0.000152326
-0.000153833
-0.000155338
-0.000156839
-0.000158333
-0.000159818
-0.000161294
-0.00016276
-0.000164213
-0.000165651
-0.00016707
-0.000168469
-0.000169846
-0.000171201
-0.000172527
-0.000173822
-0.000175085
-0.000176312
-0.000177502
-0.000178651
-0.000179756
-0.000180813
-0.000181819
-0.000182773
-0.000183671
-0.000184511
-0.00018529
-0.000186005
-0.000186653
-0.000187233
-0.000187741
-0.000188177
-0.00018854
-0.00018883
-0.000189049
-0.000189198
-0.00018928
-0.000189299
-0.000189263
-0.000189181
-0.000189063
-0.000188903
-0.000188701
-6.15484e-06
-6.14679e-06
-6.33375e-06
-6.66908e-06
-7.08779e-06
-7.55944e-06
-8.07508e-06
-8.63224e-06
-9.22885e-06
-9.86678e-06
-1.05503e-05
-1.12824e-05
-1.2062e-05
-1.28886e-05
-1.37635e-05
-1.4688e-05
-1.56616e-05
-1.66816e-05
-1.77457e-05
-1.88509e-05
-1.99947e-05
-2.11764e-05
-2.23934e-05
-2.36426e-05
-2.49218e-05
-2.62279e-05
-2.75583e-05
-2.8911e-05
-3.02839e-05
-3.16752e-05
-3.30827e-05
-3.45036e-05
-3.59361e-05
-3.73785e-05
-3.88281e-05
-4.02824e-05
-4.17397e-05
-4.31986e-05
-4.46577e-05
-4.61163e-05
-4.75739e-05
-4.90302e-05
-5.04851e-05
-5.19375e-05
-5.33864e-05
-5.48315e-05
-5.62717e-05
-5.77046e-05
-5.91302e-05
-6.05483e-05
-6.19589e-05
-6.33617e-05
-6.47561e-05
-6.61424e-05
-6.75211e-05
-6.88926e-05
-7.0257e-05
-7.16138e-05
-7.29629e-05
-7.43046e-05
-7.56386e-05
-7.69651e-05
-7.82844e-05
-7.95967e-05
-8.09022e-05
-8.22005e-05
-8.34917e-05
-8.47775e-05
-8.6059e-05
-8.73372e-05
-8.86133e-05
-8.98885e-05
-9.11627e-05
-9.24353e-05
-9.37062e-05
-9.49757e-05
-9.62451e-05
-9.75151e-05
-9.87855e-05
-0.000100057
-0.000101331
-0.000102607
-0.000103888
-0.000105173
-0.000106462
-0.000107755
-0.000109053
-0.000110357
-0.000111666
-0.000112982
-0.000114304
-0.000115633
-0.000116968
-0.000118311
-0.000119662
-0.000121022
-0.000122389
-0.000123764
-0.000125147
-0.000126539
-0.000127941
-0.000129351
-0.000130769
-0.000132195
-0.00013363
-0.000135073
-0.000136523
-0.000137982
-0.000139446
-0.000140917
-0.000142394
-0.000143876
-0.000145364
-0.000146856
-0.000148352
-0.000149849
-0.000151347
-0.000152843
-0.000154338
-0.000155829
-0.000157315
-0.000158795
-0.000160265
-0.000161723
-0.000163169
-0.000164602
-0.000166019
-0.000167418
-0.000168796
-0.00017015
-0.000171479
-0.000172781
-0.000174052
-0.00017529
-0.000176491
-0.000177655
-0.000178779
-0.00017986
-0.000180893
-0.000181876
-0.000182807
-0.000183684
-0.000184503
-0.000185264
-0.000185963
-0.000186596
-0.000187163
-0.000187661
-0.000188089
-0.000188448
-0.000188737
-0.000188957
-0.000189111
-0.000189199
-0.000189224
-0.000189191
-0.000189109
-0.000188982
-0.000188796
-0.000188535
-7.16939e-06
-7.04102e-06
-7.10016e-06
-7.31223e-06
-7.62393e-06
-8.00958e-06
-8.45606e-06
-8.95853e-06
-9.51287e-06
-1.01155e-05
-1.07676e-05
-1.14712e-05
-1.22261e-05
-1.30305e-05
-1.38828e-05
-1.47832e-05
-1.57312e-05
-1.6726e-05
-1.77658e-05
-1.88466e-05
-1.99657e-05
-2.11214e-05
-2.23115e-05
-2.35343e-05
-2.47875e-05
-2.60688e-05
-2.73758e-05
-2.87052e-05
-3.00545e-05
-3.14227e-05
-3.2808e-05
-3.4208e-05
-3.56209e-05
-3.70444e-05
-3.84761e-05
-3.99136e-05
-4.13549e-05
-4.27989e-05
-4.42448e-05
-4.56919e-05
-4.71391e-05
-4.85865e-05
-5.00339e-05
-5.14802e-05
-5.29239e-05
-5.4365e-05
-5.58026e-05
-5.7235e-05
-5.86615e-05
-6.00813e-05
-6.14944e-05
-6.29017e-05
-6.43026e-05
-6.56966e-05
-6.70835e-05
-6.84639e-05
-6.98385e-05
-7.12069e-05
-7.2569e-05
-7.39255e-05
-7.52757e-05
-7.66189e-05
-7.79549e-05
-7.92841e-05
-8.06071e-05
-8.19246e-05
-8.32368e-05
-8.45446e-05
-8.58488e-05
-8.715e-05
-8.84489e-05
-8.97466e-05
-9.10435e-05
-9.23397e-05
-9.36351e-05
-9.49295e-05
-9.62234e-05
-9.75181e-05
-9.88138e-05
-0.000100111
-0.000101409
-0.000102711
-0.000104016
-0.000105325
-0.000106639
-0.000107957
-0.000109279
-0.000110605
-0.000111936
-0.000113273
-0.000114617
-0.000115967
-0.000117323
-0.000118686
-0.000120055
-0.000121433
-0.000122818
-0.000124209
-0.000125608
-0.000127015
-0.000128429
-0.000129852
-0.000131282
-0.000132718
-0.000134162
-0.000135613
-0.000137069
-0.000138532
-0.00014
-0.000141473
-0.000142952
-0.000144434
-0.00014592
-0.000147409
-0.000148899
-0.00015039
-0.000151881
-0.000153369
-0.000154854
-0.000156333
-0.000157806
-0.000159271
-0.000160727
-0.000162171
-0.000163601
-0.000165015
-0.000166413
-0.000167792
-0.000169151
-0.000170485
-0.000171792
-0.000173072
-0.00017432
-0.000175536
-0.000176715
-0.000177856
-0.000178956
-0.000180014
-0.000181026
-0.000181989
-0.000182901
-0.000183759
-0.000184561
-0.000185305
-0.000185988
-0.000186609
-0.000187165
-0.000187654
-0.000188076
-0.000188431
-0.000188718
-0.000188938
-0.000189092
-0.000189183
-0.000189211
-0.000189178
-0.000189089
-0.000188949
-0.000188734
-0.000188422
-7.97811e-06
-7.76613e-06
-7.73706e-06
-7.85793e-06
-8.085e-06
-8.39901e-06
-8.785e-06
-9.23638e-06
-9.74901e-06
-1.03184e-05
-1.09408e-05
-1.1616e-05
-1.23446e-05
-1.31255e-05
-1.39565e-05
-1.48354e-05
-1.57609e-05
-1.67323e-05
-1.77479e-05
-1.88056e-05
-1.9902e-05
-2.10346e-05
-2.2202e-05
-2.34015e-05
-2.46308e-05
-2.58885e-05
-2.71728e-05
-2.84807e-05
-2.98096e-05
-3.11577e-05
-3.25234e-05
-3.39049e-05
-3.52998e-05
-3.6706e-05
-3.81215e-05
-3.95441e-05
-4.09714e-05
-4.24024e-05
-4.38367e-05
-4.52732e-05
-4.67115e-05
-4.81513e-05
-4.95922e-05
-5.10336e-05
-5.24741e-05
-5.39122e-05
-5.53475e-05
-5.67794e-05
-5.8207e-05
-5.96294e-05
-6.1046e-05
-6.24576e-05
-6.38645e-05
-6.52659e-05
-6.66619e-05
-6.80525e-05
-6.94377e-05
-7.08175e-05
-7.21918e-05
-7.35614e-05
-7.49264e-05
-7.62861e-05
-7.76397e-05
-7.89867e-05
-8.03276e-05
-8.16635e-05
-8.29952e-05
-8.43231e-05
-8.56484e-05
-8.69719e-05
-8.8294e-05
-8.96146e-05
-9.09341e-05
-9.2253e-05
-9.35716e-05
-9.48897e-05
-9.62073e-05
-9.75256e-05
-9.88452e-05
-0.000100166
-0.00010149
-0.000102816
-0.000104145
-0.000105478
-0.000106815
-0.000108156
-0.000109501
-0.000110851
-0.000112204
-0.000113563
-0.000114926
-0.000116296
-0.000117673
-0.000119055
-0.000120444
-0.000121838
-0.00012324
-0.000124648
-0.000126063
-0.000127485
-0.000128913
-0.000130347
-0.000131789
-0.000133236
-0.00013469
-0.000136148
-0.000137612
-0.000139079
-0.000140551
-0.000142027
-0.000143507
-0.00014499
-0.000146476
-0.000147963
-0.000149449
-0.000150935
-0.000152419
-0.000153901
-0.000155377
-0.000156847
-0.000158309
-0.000159761
-0.000161203
-0.000162633
-0.00016405
-0.000165449
-0.00016683
-0.000168192
-0.000169533
-0.000170849
-0.000172139
-0.000173398
-0.000174626
-0.000175821
-0.000176982
-0.000178103
-0.000179183
-0.000180221
-0.000181213
-0.000182157
-0.000183052
-0.000183895
-0.000184682
-0.000185412
-0.000186083
-0.000186692
-0.000187239
-0.00018772
-0.000188136
-0.000188487
-0.000188773
-0.000188993
-0.000189147
-0.000189237
-0.000189264
-0.000189228
-0.000189132
-0.000188978
-0.000188736
-0.00018838
-8.60394e-06
-8.33385e-06
-8.24325e-06
-8.29857e-06
-8.45995e-06
-8.71534e-06
-9.05089e-06
-9.45711e-06
-9.93071e-06
-1.04675e-05
-1.10627e-05
-1.17129e-05
-1.24168e-05
-1.31742e-05
-1.39833e-05
-1.4842e-05
-1.5748e-05
-1.66983e-05
-1.76922e-05
-1.87282e-05
-1.98028e-05
-2.09141e-05
-2.20607e-05
-2.324e-05
-2.44493e-05
-2.56864e-05
-2.69496e-05
-2.82375e-05
-2.95476e-05
-3.08777e-05
-3.22264e-05
-3.35916e-05
-3.49707e-05
-3.63617e-05
-3.77625e-05
-3.91713e-05
-4.05864e-05
-4.20066e-05
-4.34307e-05
-4.48584e-05
-4.62893e-05
-4.77227e-05
-4.91579e-05
-5.0595e-05
-5.2033e-05
-5.34696e-05
-5.49042e-05
-5.6336e-05
-5.77647e-05
-5.91901e-05
-6.06114e-05
-6.20282e-05
-6.34409e-05
-6.48494e-05
-6.62541e-05
-6.76546e-05
-6.90508e-05
-7.04429e-05
-7.18302e-05
-7.32131e-05
-7.45918e-05
-7.59663e-05
-7.73362e-05
-7.87008e-05
-8.006e-05
-8.14149e-05
-8.27659e-05
-8.41136e-05
-8.54591e-05
-8.68036e-05
-8.81473e-05
-8.94902e-05
-9.08322e-05
-9.21735e-05
-9.35145e-05
-9.48555e-05
-9.61964e-05
-9.75378e-05
-9.88803e-05
-0.000100225
-0.000101571
-0.000102922
-0.000104275
-0.000105631
-0.000106991
-0.000108354
-0.000109722
-0.000111093
-0.000112469
-0.000113849
-0.000115233
-0.000116622
-0.000118018
-0.000119419
-0.000120826
-0.000122238
-0.000123656
-0.000125081
-0.000126512
-0.000127948
-0.00012939
-0.000130838
-0.000132291
-0.000133749
-0.000135212
-0.000136679
-0.000138149
-0.000139623
-0.000141099
-0.000142578
-0.000144061
-0.000145545
-0.000147032
-0.000148518
-0.000150002
-0.000151485
-0.000152964
-0.000154439
-0.000155908
-0.00015737
-0.000158822
-0.000160265
-0.000161695
-0.000163113
-0.000164516
-0.000165903
-0.000167271
-0.000168618
-0.000169943
-0.000171243
-0.000172516
-0.000173759
-0.000174969
-0.000176147
-0.000177289
-0.000178393
-0.000179456
-0.000180477
-0.000181452
-0.000182381
-0.000183261
-0.000184089
-0.000184864
-0.000185583
-0.000186243
-0.000186844
-0.000187382
-0.000187858
-0.000188269
-0.000188616
-0.0001889
-0.000189119
-0.000189273
-0.000189362
-0.000189386
-0.000189345
-0.000189242
-0.000189075
-0.000188811
-0.000188421
-9.06526e-06
-8.75337e-06
-8.6205e-06
-8.63023e-06
-8.74215e-06
-8.95065e-06
-9.24492e-06
-9.61439e-06
-1.00536e-05
-1.05597e-05
-1.11286e-05
-1.17561e-05
-1.24389e-05
-1.3175e-05
-1.39631e-05
-1.48021e-05
-1.56892e-05
-1.66213e-05
-1.75964e-05
-1.86128e-05
-1.96682e-05
-2.07602e-05
-2.18871e-05
-2.30477e-05
-2.42393e-05
-2.54586e-05
-2.67042e-05
-2.79745e-05
-2.92675e-05
-3.05816e-05
-3.1915e-05
-3.32655e-05
-3.4631e-05
-3.60089e-05
-3.73969e-05
-3.87936e-05
-4.0198e-05
-4.16084e-05
-4.30241e-05
-4.44446e-05
-4.58695e-05
-4.72981e-05
-4.87293e-05
-5.0163e-05
-5.15985e-05
-5.30343e-05
-5.44693e-05
-5.59023e-05
-5.73327e-05
-5.87612e-05
-6.01873e-05
-6.16102e-05
-6.30297e-05
-6.4446e-05
-6.58593e-05
-6.72691e-05
-6.86757e-05
-7.00797e-05
-7.14805e-05
-7.28774e-05
-7.42705e-05
-7.56596e-05
-7.70448e-05
-7.84258e-05
-7.98026e-05
-8.11758e-05
-8.2546e-05
-8.39136e-05
-8.52796e-05
-8.66446e-05
-8.8009e-05
-8.93732e-05
-9.07371e-05
-9.21002e-05
-9.34629e-05
-9.48259e-05
-9.61895e-05
-9.75535e-05
-9.89187e-05
-0.000100285
-0.000101655
-0.000103028
-0.000104404
-0.000105783
-0.000107166
-0.000108552
-0.000109941
-0.000111333
-0.00011273
-0.000114131
-0.000115536
-0.000116945
-0.000118359
-0.000119778
-0.000121203
-0.000122632
-0.000124067
-0.000125508
-0.000126954
-0.000128406
-0.000129862
-0.000131323
-0.000132788
-0.000134257
-0.00013573
-0.000137205
-0.000138682
-0.000140162
-0.000141644
-0.000143128
-0.000144614
-0.000146101
-0.000147588
-0.000149074
-0.000150558
-0.000152039
-0.000153515
-0.000154984
-0.000156447
-0.000157902
-0.000159347
-0.000160781
-0.000162202
-0.00016361
-0.000165002
-0.000166378
-0.000167734
-0.000169068
-0.00017038
-0.000171666
-0.000172924
-0.000174153
-0.000175349
-0.000176511
-0.000177637
-0.000178726
-0.000179774
-0.00018078
-0.000181742
-0.000182657
-0.000183524
-0.000184341
-0.000185105
-0.000185815
-0.000186467
-0.000187059
-0.000187592
-0.000188063
-0.000188471
-0.000188815
-0.000189097
-0.000189316
-0.000189469
-0.000189557
-0.000189579
-0.000189533
-0.000189422
-0.000189245
-0.000188965
-0.00018855
-9.37789e-06
-9.03612e-06
-8.87364e-06
-8.85266e-06
-8.92925e-06
-9.10037e-06
-9.36129e-06
-9.70113e-06
-1.01126e-05
-1.05922e-05
-1.11368e-05
-1.17429e-05
-1.24065e-05
-1.31244e-05
-1.38945e-05
-1.4715e-05
-1.55842e-05
-1.64994e-05
-1.74575e-05
-1.8457e-05
-1.94959e-05
-2.05712e-05
-2.16811e-05
-2.28245e-05
-2.39995e-05
-2.52031e-05
-2.64334e-05
-2.76887e-05
-2.89674e-05
-3.02678e-05
-3.15876e-05
-3.29251e-05
-3.42783e-05
-3.56447e-05
-3.7022e-05
-3.84088e-05
-3.98039e-05
-4.12061e-05
-4.26148e-05
-4.40295e-05
-4.54494e-05
-4.68745e-05
-4.83037e-05
-4.97354e-05
-5.11694e-05
-5.26049e-05
-5.40407e-05
-5.54758e-05
-5.69093e-05
-5.83415e-05
-5.97723e-05
-6.12012e-05
-6.26282e-05
-6.40529e-05
-6.54753e-05
-6.68951e-05
-6.83123e-05
-6.97274e-05
-7.11407e-05
-7.25515e-05
-7.39594e-05
-7.53636e-05
-7.67641e-05
-7.81614e-05
-7.95554e-05
-8.09461e-05
-8.23346e-05
-8.37217e-05
-8.51078e-05
-8.64933e-05
-8.78783e-05
-8.92632e-05
-9.0648e-05
-9.20325e-05
-9.34165e-05
-9.48009e-05
-9.6186e-05
-9.75719e-05
-9.89594e-05
-0.000100349
-0.000101741
-0.000103136
-0.000104534
-0.000105935
-0.000107339
-0.000108747
-0.000110158
-0.000111572
-0.000112988
-0.000114409
-0.000115834
-0.000117263
-0.000118696
-0.000120133
-0.000121575
-0.000123022
-0.000124474
-0.00012593
-0.000127391
-0.000128858
-0.000130328
-0.000131803
-0.00013328
-0.000134761
-0.000136243
-0.000137727
-0.000139212
-0.000140699
-0.000142187
-0.000143676
-0.000145167
-0.000146657
-0.000148146
-0.000149634
-0.000151118
-0.000152597
-0.000154071
-0.000155537
-0.000156995
-0.000158444
-0.000159883
-0.00016131
-0.000162724
-0.000164124
-0.000165507
-0.000166873
-0.000168219
-0.000169543
-0.000170843
-0.000172116
-0.000173362
-0.000174578
-0.000175762
-0.000176911
-0.000178025
-0.000179099
-0.000180135
-0.000181129
-0.000182079
-0.000182983
-0.00018384
-0.000184647
-0.000185403
-0.000186105
-0.00018675
-0.000187337
-0.000187865
-0.000188332
-0.000188738
-0.000189082
-0.000189362
-0.00018958
-0.000189734
-0.000189821
-0.000189841
-0.000189791
-0.000189675
-0.00018949
-0.000189199
-0.000188768
-9.55294e-06
-9.19202e-06
-9.00818e-06
-8.96686e-06
-9.02014e-06
-9.16415e-06
-9.39761e-06
-9.71307e-06
-1.01026e-05
-1.0561e-05
-1.10851e-05
-1.16717e-05
-1.23176e-05
-1.30195e-05
-1.37741e-05
-1.4579e-05
-1.54326e-05
-1.63322e-05
-1.72749e-05
-1.82592e-05
-1.92834e-05
-2.03446e-05
-2.14405e-05
-2.25691e-05
-2.37294e-05
-2.49192e-05
-2.61359e-05
-2.73783e-05
-2.86449e-05
-2.99335e-05
-3.12423e-05
-3.25688e-05
-3.3911e-05
-3.52672e-05
-3.66354e-05
-3.80139e-05
-3.94016e-05
-4.07976e-05
-4.2201e-05
-4.36112e-05
-4.50276e-05
-4.64501e-05
-4.78778e-05
-4.93092e-05
-5.07434e-05
-5.21793e-05
-5.36164e-05
-5.50542e-05
-5.64919e-05
-5.79288e-05
-5.93648e-05
-6.08002e-05
-6.22346e-05
-6.36677e-05
-6.50995e-05
-6.65299e-05
-6.79584e-05
-6.93852e-05
-7.08108e-05
-7.22349e-05
-7.36568e-05
-7.50759e-05
-7.6492e-05
-7.79056e-05
-7.93165e-05
-8.07248e-05
-8.21315e-05
-8.35374e-05
-8.49431e-05
-8.63487e-05
-8.77541e-05
-8.91592e-05
-9.05643e-05
-9.19694e-05
-9.33745e-05
-9.47799e-05
-9.6186e-05
-9.75931e-05
-9.90021e-05
-0.000100414
-0.000101827
-0.000103244
-0.000104664
-0.000106086
-0.000107512
-0.000108941
-0.000110373
-0.000111807
-0.000113244
-0.000114684
-0.000116129
-0.000117577
-0.000119029
-0.000120484
-0.000121943
-0.000123407
-0.000124876
-0.000126348
-0.000127825
-0.000129306
-0.00013079
-0.000132278
-0.000133768
-0.000135259
-0.000136752
-0.000138245
-0.000139739
-0.000141234
-0.000142729
-0.000144224
-0.00014572
-0.000147214
-0.000148706
-0.000150196
-0.00015168
-0.000153159
-0.000154631
-0.000156096
-0.000157551
-0.000158997
-0.000160431
-0.000161853
-0.000163261
-0.000164654
-0.000166031
-0.000167388
-0.000168725
-0.00017004
-0.000171331
-0.000172594
-0.000173829
-0.000175034
-0.000176207
-0.000177345
-0.000178448
-0.000179513
-0.000180538
-0.000181521
-0.000182461
-0.000183357
-0.000184206
-0.000185005
-0.000185754
-0.00018645
-0.00018709
-0.000187673
-0.000188198
-0.000188663
-0.000189068
-0.000189411
-0.000189692
-0.00018991
-0.000190063
-0.000190151
-0.00019017
-0.000190119
-0.00019
-0.000189811
-0.000189513
-0.000189074
-9.5958e-06
-9.22843e-06
-9.03109e-06
-8.97513e-06
-9.01428e-06
-9.14075e-06
-9.35369e-06
-9.64922e-06
-1.00207e-05
-1.04626e-05
-1.09704e-05
-1.15409e-05
-1.21715e-05
-1.28588e-05
-1.35998e-05
-1.43919e-05
-1.52321e-05
-1.61184e-05
-1.70482e-05
-1.8019e-05
-1.90299e-05
-2.00789e-05
-2.11628e-05
-2.22794e-05
-2.34275e-05
-2.46051e-05
-2.58105e-05
-2.70421e-05
-2.82982e-05
-2.95769e-05
-3.08765e-05
-3.2194e-05
-3.35273e-05
-3.48749e-05
-3.62354e-05
-3.7607e-05
-3.89888e-05
-4.038e-05
-4.17798e-05
-4.31874e-05
-4.46022e-05
-4.60234e-05
-4.74505e-05
-4.88824e-05
-5.0318e-05
-5.17556e-05
-5.31948e-05
-5.4636e-05
-5.60782e-05
-5.75206e-05
-5.8963e-05
-6.04055e-05
-6.18478e-05
-6.32894e-05
-6.47305e-05
-6.61713e-05
-6.76114e-05
-6.90506e-05
-7.04891e-05
-7.19264e-05
-7.33622e-05
-7.4796e-05
-7.62274e-05
-7.76568e-05
-7.90844e-05
-8.05104e-05
-8.19354e-05
-8.33601e-05
-8.47848e-05
-8.62099e-05
-8.76353e-05
-8.90604e-05
-9.04854e-05
-9.19107e-05
-9.33363e-05
-9.47623e-05
-9.61892e-05
-9.76173e-05
-9.90474e-05
-0.00010048
-0.000101915
-0.000103353
-0.000104794
-0.000106238
-0.000107685
-0.000109134
-0.000110585
-0.00011204
-0.000113497
-0.000114957
-0.00011642
-0.000117888
-0.000119358
-0.000120831
-0.000122308
-0.000123789
-0.000125274
-0.000126763
-0.000128255
-0.00012975
-0.000131248
-0.000132749
-0.000134251
-0.000135754
-0.000137257
-0.000138761
-0.000140264
-0.000141767
-0.00014327
-0.000144772
-0.000146274
-0.000147773
-0.000149268
-0.00015076
-0.000152247
-0.000153727
-0.000155199
-0.000156662
-0.000158116
-0.000159559
-0.00016099
-0.000162409
-0.000163813
-0.000165201
-0.000166572
-0.000167923
-0.000169252
-0.000170559
-0.000171841
-0.000173097
-0.000174324
-0.000175519
-0.000176683
-0.000177813
-0.000178907
-0.000179963
-0.00018098
-0.000181956
-0.000182888
-0.000183776
-0.000184618
-0.000185412
-0.000186156
-0.000186847
-0.000187484
-0.000188064
-0.000188587
-0.000189051
-0.000189456
-0.000189801
-0.000190084
-0.000190303
-0.000190457
-0.000190545
-0.000190566
-0.000190516
-0.000190397
-0.000190207
-0.000189908
-0.000189467
-9.51029e-06
-9.15012e-06
-8.94803e-06
-8.88234e-06
-8.912e-06
-9.02852e-06
-9.22866e-06
-9.5094e-06
-9.86683e-06
-1.02954e-05
-1.07905e-05
-1.13488e-05
-1.19671e-05
-1.26422e-05
-1.33715e-05
-1.41521e-05
-1.49812e-05
-1.58567e-05
-1.67758e-05
-1.77358e-05
-1.87355e-05
-1.97734e-05
-2.08472e-05
-2.1954e-05
-2.30919e-05
-2.42598e-05
-2.5456e-05
-2.66787e-05
-2.79262e-05
-2.91967e-05
-3.04882e-05
-3.17983e-05
-3.31248e-05
-3.44659e-05
-3.58203e-05
-3.71866e-05
-3.85643e-05
-3.99522e-05
-4.13496e-05
-4.27562e-05
-4.41708e-05
-4.55923e-05
-4.70202e-05
-4.84536e-05
-4.98911e-05
-5.13318e-05
-5.27747e-05
-5.42198e-05
-5.56669e-05
-5.71153e-05
-5.85649e-05
-6.00151e-05
-6.14657e-05
-6.29165e-05
-6.43674e-05
-6.58187e-05
-6.72703e-05
-6.8722e-05
-7.01736e-05
-7.16243e-05
-7.30741e-05
-7.45227e-05
-7.59696e-05
-7.74147e-05
-7.88586e-05
-8.03021e-05
-8.17454e-05
-8.31889e-05
-8.46326e-05
-8.60768e-05
-8.75215e-05
-8.89662e-05
-9.04109e-05
-9.1856e-05
-9.33016e-05
-9.47477e-05
-9.61951e-05
-9.76442e-05
-9.90952e-05
-0.000100549
-0.000102005
-0.000103463
-0.000104925
-0.00010639
-0.000107857
-0.000109325
-0.000110797
-0.00011227
-0.000113748
-0.000115228
-0.00011671
-0.000118195
-0.000119684
-0.000121175
-0.00012267
-0.000124168
-0.000125669
-0.000127174
-0.000128681
-0.000130191
-0.000131702
-0.000133216
-0.00013473
-0.000136245
-0.00013776
-0.000139275
-0.000140788
-0.000142301
-0.000143811
-0.000145321
-0.000146828
-0.000148333
-0.000149832
-0.000151328
-0.000152817
-0.000154298
-0.000155772
-0.000157235
-0.000158689
-0.000160131
-0.000161561
-0.000162977
-0.000164378
-0.000165762
-0.000167128
-0.000168474
-0.000169798
-0.000171099
-0.000172375
-0.000173623
-0.000174843
-0.000176032
-0.000177189
-0.000178312
-0.0001794
-0.00018045
-0.00018146
-0.000182429
-0.000183356
-0.000184238
-0.000185076
-0.000185865
-0.000186606
-0.000187294
-0.000187929
-0.000188508
-0.00018903
-0.000189495
-0.000189901
-0.000190248
-0.000190534
-0.000190755
-0.000190912
-0.000191003
-0.000191027
-0.00019098
-0.000190864
-0.000190678
-0.000190382
-0.000189946
-9.30255e-06
-8.95929e-06
-8.76284e-06
-8.69317e-06
-8.71676e-06
-8.82775e-06
-9.02133e-06
-9.29334e-06
-9.64055e-06
-1.00592e-05
-1.0545e-05
-1.10939e-05
-1.17028e-05
-1.2369e-05
-1.30888e-05
-1.38599e-05
-1.46797e-05
-1.55461e-05
-1.64566e-05
-1.74084e-05
-1.83993e-05
-1.94282e-05
-2.04931e-05
-2.15917e-05
-2.27218e-05
-2.38821e-05
-2.5071e-05
-2.62868e-05
-2.75279e-05
-2.87919e-05
-3.00767e-05
-3.13807e-05
-3.27019e-05
-3.40382e-05
-3.53883e-05
-3.67513e-05
-3.81265e-05
-3.95128e-05
-4.09095e-05
-4.23162e-05
-4.3732e-05
-4.51554e-05
-4.65854e-05
-4.8021e-05
-4.94614e-05
-5.0906e-05
-5.23538e-05
-5.3804e-05
-5.52567e-05
-5.67118e-05
-5.81689e-05
-5.96273e-05
-6.10868e-05
-6.25474e-05
-6.40087e-05
-6.54709e-05
-6.69344e-05
-6.83987e-05
-6.98634e-05
-7.13277e-05
-7.27916e-05
-7.4255e-05
-7.57172e-05
-7.71783e-05
-7.86389e-05
-8.00996e-05
-8.15609e-05
-8.3023e-05
-8.44857e-05
-8.59487e-05
-8.74123e-05
-8.88762e-05
-9.03404e-05
-9.1805e-05
-9.32702e-05
-9.47361e-05
-9.62036e-05
-9.76732e-05
-9.91447e-05
-0.000100619
-0.000102095
-0.000103575
-0.000105057
-0.000106541
-0.000108028
-0.000109516
-0.000111007
-0.0001125
-0.000113996
-0.000115495
-0.000116997
-0.000118501
-0.000120008
-0.000121517
-0.00012303
-0.000124545
-0.000126062
-0.000127582
-0.000129104
-0.000130628
-0.000132153
-0.00013368
-0.000135207
-0.000136734
-0.000138261
-0.000139787
-0.00014131
-0.000142832
-0.000144352
-0.000145869
-0.000147383
-0.000148894
-0.000150399
-0.000151898
-0.00015339
-0.000154875
-0.000156351
-0.000157816
-0.00015927
-0.000160713
-0.000162142
-0.000163557
-0.000164957
-0.000166338
-0.0001677
-0.000169043
-0.000170363
-0.000171659
-0.00017293
-0.000174173
-0.000175388
-0.000176572
-0.000177724
-0.000178842
-0.000179925
-0.00018097
-0.000181976
-0.000182941
-0.000183863
-0.000184743
-0.000185577
-0.000186364
-0.000187102
-0.000187789
-0.000188423
-0.000189002
-0.000189526
-0.000189993
-0.000190401
-0.000190751
-0.000191041
-0.000191267
-0.000191428
-0.000191524
-0.000191553
-0.000191512
-0.000191402
-0.000191222
-0.000190935
-0.000190509
-8.98214e-06
-8.65973e-06
-8.47609e-06
-8.41019e-06
-8.43271e-06
-8.54143e-06
-8.73252e-06
-9.00051e-06
-9.34207e-06
-9.75444e-06
-1.02337e-05
-1.07759e-05
-1.13784e-05
-1.20379e-05
-1.27511e-05
-1.35153e-05
-1.43277e-05
-1.51865e-05
-1.60902e-05
-1.70358e-05
-1.80205e-05
-1.90427e-05
-2.01007e-05
-2.11927e-05
-2.23167e-05
-2.34713e-05
-2.46546e-05
-2.58653e-05
-2.71017e-05
-2.83611e-05
-2.96413e-05