/*--------------------------------*- C++ -*----------------------------------*\
  =========                 |
  \\      /  F ield         | OpenFOAM: The Open Source CFD Toolbox
   \\    /   O peration     | Website:  https://openfoam.org
    \\  /    A nd           | Version:  7
     \\/     M anipulation  |
\*---------------------------------------------------------------------------*/
FoamFile
{
    version     2.0;
    format      ascii;
    class       volScalarField;
    location    "0.125";
    object      p;
}
// * * * * * * * * * * * * * * * * * * * * * * * * * * * * * * * * * * * * * //

dimensions      [0 2 -2 0 0 0 0];

internalField   nonuniform List<scalar> 
12800
(
-1.81639e-09
2.06352e-05
-2.91622e-05
-0.000157959
-0.000355146
-0.000608518
-0.000905353
-0.00123356
-0.00158247
-0.00194289
-0.00230709
-0.00266866
-0.00302223
-0.00336343
-0.0036887
-0.00399527
-0.00428098
-0.00454422
-0.00478381
-0.00499898
-0.00518927
-0.00535448
-0.00549459
-0.00560972
-0.00570012
-0.00576614
-0.00580826
-0.00582697
-0.00582276
-0.00579612
-0.00574754
-0.00567749
-0.00558642
-0.00547476
-0.00534291
-0.00519121
-0.00501995
-0.00482942
-0.00461985
-0.0043914
-0.00414418
-0.00387827
-0.00359372
-0.00329052
-0.00296864
-0.00262803
-0.00226858
-0.00189015
-0.00149258
-0.00107568
-0.000639285
-0.000183155
0.000292974
0.000789391
0.00130639
0.00184429
0.00240343
0.00298423
0.00358711
0.00421254
0.00486096
0.00553287
0.00622878
0.00694925
0.0076948
0.00846603
0.00926357
0.0100881
0.0109403
0.011821
0.0127308
0.0136707
0.0146415
0.015644
0.0166793
0.0177481
0.0188515
0.0199904
0.0211659
0.022379
0.0236306
0.0249218
0.0262537
0.0276273
0.0290438
0.0305042
0.0320094
0.0335605
0.0351584
0.0368039
0.0384981
0.0402415
0.0420348
0.0438787
0.0457736
0.0477198
0.0497175
0.0517667
0.0538672
0.0560187
0.0582204
0.0604716
0.0627711
0.0651174
0.0675088
0.0699433
0.0724184
0.0749314
0.0774791
0.0800579
0.0826639
0.0852926
0.0879392
0.0905987
0.0932651
0.0959326
0.0985946
0.101244
0.103874
0.106477
0.109045
0.111569
0.114042
0.116455
0.1188
0.121067
0.123249
0.125337
0.127324
0.1292
0.13096
0.132596
0.134101
0.135472
0.136702
0.137789
0.138729
0.13952
0.140163
0.140657
0.141005
0.14121
0.141276
0.141208
0.141015
0.140706
0.140289
0.139777
0.139184
0.138524
0.137815
0.137076
0.136328
0.135596
0.134908
0.134295
0.133791
0.133433
0.133259
0.133266
-2.04491e-05
1.52795e-06
-4.61308e-05
-0.0001612
-0.000332566
-0.000551633
-0.000809048
-0.00109532
-0.0014016
-0.00172015
-0.00204411
-0.00236764
-0.0026858
-0.00299441
-0.00329003
-0.00356992
-0.00383182
-0.00407403
-0.00429524
-0.00449452
-0.00467121
-0.00482497
-0.0049556
-0.00506305
-0.00514743
-0.00520891
-0.00524777
-0.00526436
-0.00525901
-0.00523212
-0.00518404
-0.00511514
-0.00502575
-0.00491624
-0.00478693
-0.00463807
-0.00446991
-0.00428266
-0.00407648
-0.00385151
-0.00360783
-0.00334547
-0.00306445
-0.00276474
-0.00244627
-0.00210897
-0.00175274
-0.0013774
-0.000982778
-0.000568684
-0.00013492
0.000318747
0.000792592
0.00128691
0.001802
0.00233819
0.00289583
0.00347534
0.00407713
0.00470167
0.00534941
0.00602085
0.00671649
0.00743685
0.00818247
0.00895392
0.00975184
0.0105769
0.0114297
0.0123111
0.0132217
0.0141624
0.015134
0.0161374
0.0171734
0.0182429
0.0193468
0.020486
0.0216615
0.0228741
0.024125
0.025415
0.0267451
0.0281164
0.0295298
0.0309862
0.0324867
0.034032
0.035623
0.0372606
0.0389454
0.0406781
0.0424592
0.0442892
0.0461685
0.0480973
0.0500756
0.0521033
0.0541801
0.0563056
0.0584791
0.0606995
0.0629657
0.0652762
0.0676291
0.0700224
0.0724536
0.07492
0.0774185
0.0799454
0.0824969
0.0850687
0.0876561
0.0902541
0.0928571
0.0954593
0.0980545
0.100636
0.103197
0.10573
0.108228
0.110684
0.113088
0.115433
0.117712
0.119916
0.122037
0.124067
0.125999
0.127826
0.129541
0.131138
0.132611
0.133955
0.135167
0.136241
0.137177
0.137973
0.138629
0.139145
0.139524
0.139768
0.139883
0.139873
0.139747
0.139513
0.13918
0.138759
0.138265
0.137711
0.137112
0.136487
0.135856
0.135239
0.134662
0.134149
0.133726
0.133421
0.133266
0.133273
3.10077e-05
5.1931e-05
4.24568e-06
-0.000104246
-0.000261419
-0.000460048
-0.000692566
-0.00095106
-0.00122815
-0.00151711
-0.00181192
-0.00210732
-0.00239875
-0.00268232
-0.00295483
-0.00321356
-0.00345632
-0.0036814
-0.00388744
-0.00407343
-0.00423862
-0.00438253
-0.00450484
-0.00460543
-0.00468427
-0.00474143
-0.00477707
-0.00479139
-0.00478465
-0.00475713
-0.00470911
-0.00464084
-0.0045526
-0.00444468
-0.00431731
-0.0041707
-0.00400507
-0.00382054
-0.00361724
-0.00339524
-0.0031546
-0.00289535
-0.00261746
-0.00232086
-0.00200548
-0.00167123
-0.00131797
-0.000945528
-0.000553715
-0.000142331
0.000288842
0.000740057
0.00121159
0.00170373
0.00221677
0.00275106
0.00330696
0.00388489
0.00448527
0.00510853
0.00575515
0.00642562
0.00712042
0.00784007
0.00858509
0.00935604
0.0101536
0.0109783
0.0118309
0.0127121
0.0136226
0.0145631
0.0155346
0.0165377
0.0175735
0.0186425
0.0197458
0.0208843
0.0220587
0.02327
0.0245192
0.025807
0.0271345
0.0285026
0.0299122
0.0313642
0.0328594
0.0343987
0.0359829
0.0376125
0.0392884
0.041011
0.0427808
0.0445982
0.0464635
0.0483767
0.050338
0.052347
0.0544034
0.0565067
0.0586561
0.0608506
0.063089
0.0653696
0.0676907
0.0700502
0.0724456
0.0748742
0.0773328
0.079818
0.082326
0.0848525
0.087393
0.0899424
0.0924956
0.0950468
0.09759
0.100119
0.102627
0.105107
0.107551
0.109953
0.112305
0.1146
0.116829
0.118984
0.12106
0.123047
0.12494
0.12673
0.128413
0.129981
0.131431
0.132756
0.133954
0.135021
0.135955
0.136755
0.137422
0.137955
0.138357
0.138632
0.138784
0.138818
0.138742
0.138563
0.138292
0.137939
0.137517
0.137038
0.136518
0.135973
0.135421
0.134881
0.134374
0.133921
0.133544
0.133264
0.133109
0.1331
0.000164305
0.00017092
0.00011535
5.74926e-06
-0.000146633
-0.000335198
-0.000553374
-0.000794442
-0.00105205
-0.00132034
-0.00159406
-0.00186846
-0.00213942
-0.00240342
-0.00265744
-0.00289895
-0.00312587
-0.00333652
-0.00352957
-0.00370403
-0.0038591
-0.0039942
-0.00410898
-0.0042032
-0.00427678
-0.00432972
-0.00436209
-0.00437402
-0.00436567
-0.00433724
-0.00428892
-0.00422094
-0.0041335
-0.0040268
-0.00390102
-0.00375632
-0.00359286
-0.00341074
-0.00321001
-0.00299073
-0.00275291
-0.00249655
-0.00222159
-0.00192797
-0.00161557
-0.0012843
-0.000933968
-0.00056441
-0.000175434
0.000233168
0.000661642
0.00111026
0.00157931
0.00206906
0.00257982
0.00311193
0.00366578
0.00424178
0.00484033
0.00546189
0.00610692
0.0067759
0.00746931
0.00818764
0.00893141
0.0097012
0.0104976
0.0113213
0.0121729
0.013053
0.0139625
0.0149021
0.0158725
0.0168745
0.0179089
0.0189766
0.0200784
0.0212151
0.0223875
0.0235964
0.0248428
0.0261276
0.0274515
0.0288156
0.0302206
0.0316674
0.0331568
0.0346895
0.0362663
0.0378878
0.0395546
0.0412672
0.0430259
0.0448311
0.046683
0.0485817
0.050527
0.0525188
0.0545566
0.0566399
0.0587679
0.0609394
0.0631533
0.0654079
0.0677014
0.0700319
0.0723967
0.0747933
0.0772185
0.0796688
0.0821406
0.0846298
0.0871317
0.0896417
0.0921545
0.0946647
0.0971662
0.0996531
0.102119
0.104557
0.106959
0.10932
0.111632
0.113887
0.116078
0.118198
0.120238
0.122194
0.124056
0.12582
0.127479
0.129027
0.130459
0.131771
0.13296
0.134023
0.134957
0.135761
0.136437
0.136984
0.137406
0.137704
0.137884
0.137952
0.137914
0.137777
0.137552
0.137249
0.136879
0.136454
0.135989
0.135499
0.134999
0.134507
0.134041
0.133619
0.133259
0.13298
0.132804
0.132746
0.000368147
0.000347271
0.000275345
0.000158187
4.24505e-06
-0.000180593
-0.000390635
-0.000620167
-0.00086373
-0.00111633
-0.00137333
-0.00163058
-0.00188443
-0.0021317
-0.00236963
-0.00259591
-0.0028086
-0.00300612
-0.00318721
-0.00335088
-0.00349635
-0.00362304
-0.00373052
-0.00381852
-0.00388688
-0.00393556
-0.00396456
-0.00397395
-0.00396383
-0.00393431
-0.00388553
-0.00381766
-0.00373085
-0.00362524
-0.00350093
-0.00335805
-0.00319669
-0.0030169
-0.00281872
-0.00260215
-0.00236718
-0.00211375
-0.0018418
-0.00155123
-0.00124194
-0.000913783
-0.000566558
-0.000200079
0.000185845
0.000591441
0.00101697
0.00146273
0.00192898
0.00241602
0.00292415
0.00345374
0.00400516
0.00457882
0.00517513
0.00579454
0.0064375
0.0071045
0.00779599
0.00851245
0.00925442
0.0100225
0.0108172
0.0116391
0.012489
0.0133675
0.0142753
0.0152131
0.0161816
0.0171817
0.0182141
0.0192796
0.0203789
0.0215129
0.0226824
0.0238881
0.0251309
0.0264116
0.0277311
0.0290903
0.0304898
0.0319305
0.0334131
0.0349385
0.0365072
0.0381198
0.0397768
0.0414787
0.0432257
0.0450183
0.0468565
0.0487404
0.0506697
0.0526443
0.0546638
0.0567274
0.0588345
0.0609838
0.0631742
0.0654041
0.0676716
0.0699747
0.0723111
0.0746779
0.0770723
0.0794908
0.0819297
0.084385
0.0868523
0.089327
0.091804
0.0942778
0.0967429
0.0991931
0.101622
0.104024
0.106391
0.108717
0.110994
0.113216
0.115376
0.117465
0.119478
0.121407
0.123246
0.124988
0.126628
0.12816
0.129579
0.130882
0.132064
0.133124
0.13406
0.134869
0.135554
0.136114
0.136552
0.136871
0.137076
0.137171
0.137165
0.137063
0.136876
0.136612
0.136283
0.1359
0.135477
0.135026
0.134564
0.134103
0.133661
0.133253
0.132894
0.1326
0.132383
0.13225
0.000630316
0.000572518
0.000477312
0.000346914
0.000185824
-8.73131e-07
-0.000208211
-0.000431383
-0.00066582
-0.000907206
-0.00115156
-0.00139531
-0.00163524
-0.00186854
-0.00209275
-0.00230581
-0.00250595
-0.00269175
-0.00286201
-0.0030158
-0.00315236
-0.00327113
-0.00337167
-0.0034537
-0.00351701
-0.00356151
-0.00358715
-0.00359397
-0.003582
-0.0035513
-0.00350198
-0.00343413
-0.00334784
-0.0032432
-0.00312029
-0.00297916
-0.00281986
-0.00264237
-0.00244672
-0.00223287
-0.00200076
-0.00175031
-0.00148144
-0.00119403
-0.000887948
-0.000563023
-0.000219056
0.000144154
0.000526823
0.0009292
0.00135156
0.00179419
0.00225737
0.0027414
0.00324659
0.00377332
0.00432195
0.00489288
0.00548654
0.00610338
0.00674384
0.00740837
0.00809743
0.00881151
0.00955114
0.0103169
0.0111093
0.0119289
0.0127765
0.0136526
0.014558
0.0154933
0.0164593
0.0174567
0.0184863
0.0195487
0.0206448
0.0217752
0.0229409
0.0241424
0.0253808
0.0266566
0.0279708
0.0293241
0.0307172
0.032151
0.0336262
0.0351433
0.0367031
0.0383061
0.0399527
0.0416433
0.0433783
0.0451578
0.0469819
0.0488508
0.0507641
0.0527216
0.0547229
0.0567674
0.0588541
0.0609821
0.06315
0.0653563
0.0675993
0.0698769
0.0721868
0.0745262
0.0768923
0.0792818
0.081691
0.0841161
0.0865526
0.0889962
0.0914417
0.093884
0.0963175
0.0987364
0.101135
0.103506
0.105843
0.10814
0.110389
0.112585
0.114718
0.116784
0.118774
0.120683
0.122503
0.124229
0.125855
0.127376
0.128786
0.130083
0.131262
0.132322
0.13326
0.134075
0.134768
0.13534
0.135793
0.13613
0.136355
0.136474
0.136493
0.136419
0.136261
0.136028
0.13573
0.135378
0.134985
0.134562
0.134122
0.13368
0.133247
0.132838
0.132466
0.132143
0.131871
0.131647
0.00093904
0.000838141
0.000714361
0.000565944
0.000392814
0.00019935
-1.00879e-05
-0.000231588
-0.000461307
-0.000695605
-0.000931141
-0.00116484
-0.00139393
-0.00161599
-0.00182886
-0.00203073
-0.00222008
-0.00239562
-0.00255629
-0.00270121
-0.00282969
-0.00294118
-0.00303528
-0.0031117
-0.00317022
-0.00321071
-0.00323312
-0.00323742
-0.00322361
-0.00319173
-0.00314183
-0.00307395
-0.00298813
-0.00288442
-0.00276285
-0.00262344
-0.00246615
-0.00229096
-0.00209783
-0.0018867
-0.00165748
-0.00141006
-0.00114434
-0.000860175
-0.000557402
-0.000235827
0.000104744
0.000464521
0.000843753
0.00124272
0.0016617
0.00210097
0.00256081
0.00304155
0.00354351
0.00406706
0.00461257
0.00518042
0.00577105
0.00638491
0.00702243
0.00768405
0.00837022
0.00908143
0.0098182
0.0105811
0.0113706
0.0121874
0.013032
0.0139052
0.0148075
0.0157396
0.0167023
0.0176963
0.0187222
0.0197808
0.0208728
0.0219989
0.0231598
0.0243564
0.0255894
0.0268595
0.0281675
0.0295141
0.0309
0.0323261
0.0337929
0.0353011
0.0368513
0.038444
0.0400795
0.0417583
0.0434806
0.0452466
0.0470565
0.0489101
0.0508074
0.0527479
0.0547313
0.056757
0.0588241
0.0609315
0.063078
0.065262
0.067482
0.0697358
0.0720212
0.0743356
0.0766761
0.0790394
0.0814221
0.0838203
0.0862299
0.0886464
0.0910649
0.0934803
0.0958873
0.09828
0.100653
0.102999
0.105312
0.107586
0.109813
0.111988
0.114102
0.11615
0.118124
0.120018
0.121826
0.123541
0.125158
0.126672
0.128078
0.129372
0.130551
0.131613
0.132555
0.133377
0.134079
0.134661
0.135127
0.13548
0.135722
0.13586
0.135899
0.135846
0.13571
0.135499
0.135223
0.134893
0.134518
0.134111
0.133682
0.133245
0.132809
0.132387
0.13199
0.131628
0.131292
0.130969
0.00128325
0.00113532
0.000979159
0.000808872
0.000619702
0.00041542
0.000199801
-2.39519e-05
-0.000252721
-0.000483521
-0.000713564
-0.000940263
-0.00116129
-0.00137458
-0.00157832
-0.00177096
-0.00195118
-0.00211789
-0.00227015
-0.00240722
-0.00252845
-0.00263337
-0.00272158
-0.00279282
-0.00284688
-0.00288364
-0.002903
-0.00290491
-0.00288936
-0.00285636
-0.00280591
-0.00273801
-0.00265267
-0.00254989
-0.00242966
-0.00229193
-0.00213666
-0.00196378
-0.00177321
-0.00156483
-0.00133854
-0.00109422
-0.000831729
-0.000550902
-0.000251543
6.65493e-05
0.000403577
0.000759771
0.0011354
0.00153077
0.00194615
0.00238184
0.00283811
0.00331531
0.00381377
0.00433385
0.00487591
0.00544036
0.00602762
0.00663813
0.00727231
0.00793059
0.00861342
0.0093213
0.0100547
0.0108143
0.0116004
0.0124137
0.0132548
0.0141244
0.015023
0.0159513
0.01691
0.0178998
0.0189213
0.0199753
0.0210624
0.0221833
0.0233388
0.0245295
0.0257563
0.0270198
0.0283207
0.0296598
0.0310378
0.0324553
0.033913
0.0354115
0.0369513
0.0385329
0.0401567
0.041823
0.0435322
0.0452843
0.0470795
0.0489176
0.0507987
0.0527222
0.0546879
0.0566951
0.058743
0.0608305
0.0629564
0.0651193
0.0673175
0.0695491
0.0718118
0.0741032
0.0764203
0.0787601
0.0811191
0.0834937
0.0858797
0.0882728
0.0906683
0.0930612
0.0954461
0.0978175
0.10017
0.102496
0.104791
0.107047
0.109258
0.111418
0.113518
0.115554
0.117517
0.119402
0.121202
0.122912
0.124525
0.126036
0.127442
0.128737
0.129919
0.130985
0.131933
0.132763
0.133474
0.134068
0.134546
0.134911
0.135168
0.135321
0.135375
0.135339
0.135219
0.135023
0.134761
0.134443
0.134077
0.133676
0.133248
0.132805
0.132357
0.131912
0.131481
0.131073
0.130667
0.130243
0.00165291
0.00145565
0.00126441
0.00106933
0.000860983
0.000642568
0.000417457
0.00018816
-4.28848e-05
-0.000273257
-0.000500683
-0.000723061
-0.000938475
-0.00114523
-0.00134185
-0.00152705
-0.00169974
-0.00185899
-0.00200404
-0.00213424
-0.00224908
-0.00234812
-0.00243105
-0.0024976
-0.0025476
-0.00258093
-0.00259749
-0.00259722
-0.00258009
-0.00254608
-0.00249517
-0.00242732
-0.00234251
-0.00224071
-0.00212185
-0.00198585
-0.00183263
-0.00166209
-0.00147411
-0.00126855
-0.00104527
-0.000804116
-0.000544937
-0.000267534
2.83004e-05
0.000342776
0.000676117
0.00102858
0.00140046
0.00179206
0.00220365
0.00263554
0.00308803
0.00356147
0.00405618
0.00457252
0.00511085
0.0056716
0.00625517
0.00686198
0.00749245
0.008147
0.00882609
0.00953022
0.0102599
0.0110156
0.0117978
0.0126071
0.0134442
0.0143095
0.0152038
0.0161277
0.0170817
0.0180666
0.019083
0.0201316
0.0212131
0.0223281
0.0234773
0.0246614
0.0258811
0.0271372
0.0284302
0.0297609
0.03113
0.0325381
0.0339859
0.0354738
0.0370025
0.0385723
0.0401836
0.0418369
0.0435323
0.04527
0.04705
0.0488724
0.050737
0.0526435
0.0545915
0.0565804
0.0586093
0.0606774
0.0627835
0.0649261
0.0671036
0.0693143
0.0715558
0.0738258
0.0761216
0.0784401
0.080778
0.0831318
0.0854974
0.0878705
0.0902465
0.0926207
0.0949877
0.0973421
0.0996782
0.10199
0.104271
0.106515
0.108715
0.110864
0.112957
0.114986
0.116944
0.118825
0.120623
0.122332
0.123945
0.125459
0.126868
0.128168
0.129356
0.130429
0.131386
0.132225
0.132946
0.133551
0.13404
0.134417
0.134686
0.134851
0.134918
0.134892
0.134783
0.134596
0.134342
0.134028
0.133664
0.13326
0.132825
0.132369
0.131899
0.131424
0.130952
0.130493
0.130016
0.129491
0.0020391
0.00179126
0.00156318
0.00134115
0.00111118
0.00087604
0.000638755
0.000401172
0.000165148
-6.74093e-05
-0.000294718
-0.00051513
-0.000727122
-0.000929356
-0.00112068
-0.00130009
-0.00146671
-0.00161982
-0.0017588
-0.00188314
-0.00199243
-0.00208634
-0.00216459
-0.00222698
-0.00227337
-0.00230364
-0.0023177
-0.00231551
-0.00229702
-0.00226218
-0.00221094
-0.00214326
-0.00205908
-0.00195832
-0.00184089
-0.00170669
-0.00155559
-0.00138745
-0.00120212
-0.000999439
-0.000779243
-0.000541355
-0.000285572
-1.16841e-05
0.000280517
0.000591255
0.000920784
0.00126939
0.00163738
0.00202504
0.00243267
0.00286059
0.00330912
0.00377858
0.00426932
0.00478168
0.00531605
0.00587283
0.00645242
0.00705522
0.00768164
0.00833211
0.0090071
0.00970707
0.0104325
0.0111839
0.0119617
0.0127666
0.0135991
0.0144597
0.0153491
0.0162678
0.0172165
0.0181959
0.0192066
0.0202491
0.0213242
0.0224325
0.0235746
0.0247513
0.0259632
0.027211
0.0284953
0.0298168
0.0311762
0.0325741
0.034011
0.0354876
0.0370043
0.0385615
0.0401597
0.0417991
0.0434801
0.0452028
0.0469672
0.0487734
0.0506212
0.0525104
0.0544406
0.0564111
0.0584214
0.0604704
0.062557
0.06468
0.0668377
0.0690285
0.0712501
0.0735003
0.0757765
0.0780757
0.0803948
0.0827302
0.085078
0.0874341
0.0897941
0.092153
0.0945059
0.0968473
0.0991716
0.101473
0.103745
0.105981
0.108175
0.11032
0.112409
0.114436
0.116394
0.118277
0.120077
0.12179
0.123409
0.124929
0.126346
0.127655
0.128852
0.129935
0.130903
0.131753
0.132485
0.133101
0.133602
0.133991
0.13427
0.134445
0.13452
0.134503
0.134399
0.134217
0.133964
0.133649
0.133281
0.132867
0.132418
0.131941
0.131443
0.130932
0.130416
0.129902
0.129353
0.12873
0.00243384
0.00213495
0.00186895
0.00161844
0.00136501
0.00111113
0.000859491
0.000611391
0.00036816
0.00013121
-9.81232e-05
-0.000318605
-0.000529111
-0.000728642
-0.000916341
-0.00109146
-0.00125338
-0.00140156
-0.00153557
-0.00165502
-0.00175962
-0.00184912
-0.00192334
-0.00198214
-0.00202539
-0.00205301
-0.00206494
-0.00206113
-0.00204152
-0.00200606
-0.00195468
-0.00188733
-0.0018039
-0.0017043
-0.0015884
-0.00145607
-0.00130717
-0.00114151
-0.000958906
-0.000759185
-0.000542157
-0.000307607
-5.53046e-05
0.00021497
0.000503435
0.000810334
0.00113595
0.00148059
0.00184456
0.00222815
0.00263168
0.00305548
0.00349988
0.0039652
0.00445178
0.00495996
0.00549015
0.00604272
0.00661807
0.00721658
0.00783866
0.00848474
0.00915529
0.00985075
0.0105716
0.0113183
0.0120913
0.0128912
0.0137186
0.014574
0.0154579
0.016371
0.0173138
0.0182871
0.0192913
0.0203271
0.0213951
0.022496
0.0236303
0.0247988
0.026002
0.0272407
0.0285154
0.0298269
0.0311757
0.0325624
0.0339878
0.0354521
0.036956
0.0384998
0.0400841
0.041709
0.0433748
0.0450818
0.04683
0.0486195
0.0504501
0.0523216
0.0542337
0.0561858
0.0581774
0.0602074
0.0622749
0.0643787
0.0665173
0.068689
0.0708918
0.0731234
0.0753815
0.0776631
0.0799652
0.0822844
0.0846169
0.0869587
0.0893054
0.0916524
0.0939945
0.0963266
0.0986429
0.100938
0.103205
0.105438
0.10763
0.109775
0.111866
0.113897
0.115859
0.117748
0.119556
0.121278
0.122907
0.124438
0.125866
0.127187
0.128398
0.129494
0.130475
0.131338
0.132084
0.132712
0.133225
0.133624
0.133914
0.134097
0.134179
0.134167
0.134066
0.133884
0.133628
0.133307
0.132928
0.1325
0.132031
0.131527
0.130997
0.130446
0.129882
0.129312
0.12869
0.127974
0.00283001
0.00248011
0.0021756
0.0018956
0.00161742
0.00134321
0.0010755
0.000815088
0.000562805
0.000319614
8.64466e-05
-0.000135866
-0.000346573
-0.000544995
-0.000730558
-0.000902782
-0.00106126
-0.00120567
-0.00133573
-0.00145121
-0.00155194
-0.00163779
-0.00170864
-0.0017644
-0.00180501
-0.00183043
-0.00184061
-0.00183552
-0.00181508
-0.00177925
-0.00172795
-0.00166111
-0.00157859
-0.00148027
-0.00136603
-0.00123569
-0.00108907
-0.000925975
-0.000746191
-0.000549518
-0.00033573
-0.000104585
0.000144158
0.000410729
0.000695371
0.000998355
0.00131998
0.00166057
0.00202041
0.00239983
0.00279915
0.00321872
0.00365885
0.00411988
0.00460213
0.00510598
0.0056318
0.00617997
0.00675085
0.00734482
0.00796231
0.00860374
0.00926955
0.00996017
0.010676
0.0114176
0.0121855
0.01298
0.0138019
0.0146515
0.0155295
0.0164364
0.0173728
0.0183393
0.0193365
0.0203649
0.0214252
0.0225179
0.0236437
0.0248032
0.025997
0.0272257
0.02849
0.0297906
0.031128
0.0325028
0.0339156
0.0353668
0.036857
0.0383866
0.0399561
0.0415657
0.0432156
0.0449062
0.0466375
0.0484096
0.0502225
0.0520759
0.0539695
0.055903
0.0578756
0.0598867
0.0619352
0.0640201
0.0661399
0.0682931
0.0704778
0.0726919
0.074933
0.0771985
0.0794852
0.0817901
0.0841094
0.0864392
0.0887752
0.0911129
0.0934474
0.0957734
0.0980853
0.100377
0.102644
0.104877
0.107073
0.109222
0.111319
0.113358
0.11533
0.11723
0.11905
0.120785
0.122429
0.123975
0.12542
0.126757
0.127984
0.129097
0.130094
0.130973
0.131734
0.132376
0.132902
0.133313
0.133612
0.133803
0.13389
0.133881
0.13378
0.133595
0.133333
0.133001
0.132608
0.13216
0.131667
0.131133
0.130567
0.129972
0.129358
0.128731
0.128039
0.127232
0.00322125
0.00282066
0.00247747
0.00216735
0.00186345
0.00156778
0.00128268
0.00100852
0.00074568
0.000494721
0.000256176
3.05121e-05
-0.000181854
-0.000380557
-0.000565308
-0.000735874
-0.000892068
-0.00103376
-0.00116085
-0.00127325
-0.00137093
-0.00145383
-0.00152195
-0.00157526
-0.00161376
-0.00163744
-0.00164628
-0.00164025
-0.00161931
-0.00158338
-0.00153241
-0.00146627
-0.00138484
-0.00128797
-0.00117552
-0.00104729
-0.000903056
-0.000742617
-0.000565746
-0.000372199
-0.000161718
6.59565e-05
0.00031107
0.000573871
0.00085463
0.00115365
0.00147123
0.00180769
0.00216334
0.00253851
0.00293356
0.0033488
0.00378456
0.00424117
0.00471899
0.00521837
0.00573967
0.00628326
0.00684948
0.00743873
0.00805142
0.00868797
0.00934879
0.0100343
0.0107449
0.0114811
0.0122434
0.0130323
0.0138481
0.0146916
0.0155632
0.0164634
0.0173929
0.0183521
0.0193416
0.0203621
0.0214139
0.0224978
0.0236143
0.0247641
0.0259477
0.0271657
0.0284188
0.0297076
0.0310327
0.0323946
0.033794
0.0352312
0.0367069
0.0382214
0.0397752
0.0413686
0.0430019
0.0446752
0.0463889
0.0481429
0.0499374
0.051772
0.0536467
0.055561
0.0575145
0.0595063
0.0615358
0.0636019
0.0657032
0.0678383
0.0700054
0.0722027
0.0744277
0.0766781
0.0789509
0.0812429
0.0835507
0.0858705
0.0881981
0.0905291
0.0928586
0.0951814
0.0974922
0.099785
0.102054
0.104293
0.106494
0.108653
0.110761
0.112811
0.114798
0.116713
0.11855
0.120303
0.121966
0.123533
0.124997
0.126355
0.127603
0.128736
0.129752
0.13065
0.131429
0.132087
0.132627
0.13305
0.133359
0.133557
0.13365
0.133642
0.13354
0.133349
0.133078
0.132733
0.132321
0.131851
0.13133
0.130763
0.130157
0.129517
0.128852
0.128168
0.127407
0.126514
0.00360177
0.00315108
0.00276923
0.00242861
0.00209839
0.00178043
0.00147695
0.00118792
0.00091333
0.000653347
0.000408139
0.000177842
-3.74438e-05
-0.000237652
-0.000422758
-0.000592772
-0.000747728
-0.000887681
-0.0010127
-0.00112287
-0.00121825
-0.00129892
-0.00136495
-0.00141638
-0.00145329
-0.0014757
-0.00148361
-0.00147703
-0.0014559
-0.00142019
-0.00136978
-0.00130457
-0.00122442
-0.00112918
-0.00101867
-0.000892653
-0.000750921
-0.000593243
-0.000419365
-0.00022901
-2.18931e-05
0.00020225
0.000443678
0.000702665
0.000979511
0.00127453
0.00158803
0.00192033
0.00227175
0.00264265
0.00303337
0.00344422
0.00387555
0.00432768
0.00480098
0.00529579
0.00581246
0.00635134
0.00691277
0.00749715
0.00810488
0.00873636
0.00939198
0.0100721
0.0107773
0.0115078
0.0122643
0.0130471
0.0138566
0.0146935
0.0155583
0.0164514
0.0173734
0.0183248
0.0193062
0.020318
0.0213608
0.0224352
0.0235418
0.0246811
0.0258537
0.0270603
0.0283013
0.0295775
0.0308895
0.0322377
0.0336227
0.035045
0.0365052
0.0380038
0.039541
0.0411172
0.0427329
0.0443882
0.0460834
0.0478185
0.0495938
0.051409
0.0532641
0.0551588
0.0570925
0.0590649
0.061075
0.063122
0.0652048
0.067322
0.0694719
0.0716528
0.0738625
0.0760986
0.0783584
0.0806388
0.0829366
0.0852481
0.0875692
0.0898956
0.0922224
0.0945448
0.0968572
0.0991539
0.101429
0.103676
0.105888
0.108059
0.110182
0.112249
0.114254
0.116189
0.118048
0.119824
0.121511
0.123101
0.124591
0.125974
0.127246
0.128403
0.129443
0.130363
0.131161
0.131838
0.132395
0.132831
0.133151
0.133358
0.133455
0.133448
0.133343
0.133145
0.132863
0.132502
0.13207
0.131575
0.131022
0.13042
0.129773
0.129086
0.128369
0.127628
0.126799
0.125825
0.00396626
0.00346618
0.0030459
0.00267464
0.00231773
0.0019769
0.00165431
0.00134955
0.00106225
0.000792224
0.000539302
0.000303305
8.40282e-05
-0.000118737
-0.00030522
-0.00047567
-0.000630329
-0.000769435
-0.000893231
-0.00100194
-0.00109576
-0.00117486
-0.00123941
-0.00128955
-0.00132538
-0.00134698
-0.00135439
-0.00134762
-0.00132666
-0.00129144
-0.00124186
-0.00117782
-0.00109916
-0.00100571
-0.000897273
-0.000773612
-0.000634496
-0.00047967
-0.000308849
-0.000121735
8.19655e-05
0.000302531
0.000540242
0.000795401
0.00106833
0.00135934
0.00166875
0.00199689
0.00234409
0.00271072
0.0030971
0.00350355
0.00393042
0.00437805
0.00484679
0.00533698
0.00584894
0.00638302
0.00693958
0.00751899
0.00812165
0.00874793
0.00939819
0.0100728
0.0107723
0.011497
0.0122473
0.0130238
0.0138268
0.0146568
0.0155143
0.0163999
0.017314
0.0182571
0.0192297
0.0202323
0.0212655
0.0223299
0.0234259
0.024554
0.0257149
0.0269092
0.0281375
0.0294002
0.0306981
0.0320317
0.0334015
0.034808
0.0362518
0.0377334
0.039253
0.0408112
0.0424083
0.0440446
0.0457204
0.0474358
0.049191
0.050986
0.0528208
0.054695
0.0566085
0.0585608
0.0605512
0.0625789
0.0646429
0.066742
0.0688748
0.0710395
0.0732342
0.0754566
0.0777042
0.079974
0.0822629
0.0845674
0.0868836
0.0892072
0.0915335
0.0938577
0.0961743
0.0984777
0.100762
0.10302
0.105247
0.107434
0.109575
0.111663
0.113691
0.115651
0.117536
0.119339
0.121054
0.122673
0.124192
0.125604
0.126905
0.128091
0.129158
0.130103
0.130925
0.131624
0.132199
0.132651
0.132984
0.133199
0.133302
0.133296
0.133187
0.132982
0.132687
0.132309
0.131855
0.131332
0.130748
0.130108
0.129418
0.128683
0.127913
0.127116
0.126222
0.125168
0.00430977
0.00376107
0.00330275
0.00290091
0.00251711
0.00215305
0.00181083
0.0014897
0.00118894
0.000908055
0.000646562
0.000403978
0.000179813
-2.64093e-05
-0.00021516
-0.00038691
-0.00054211
-0.000681182
-0.000804525
-0.000912505
-0.00100544
-0.00108361
-0.00114728
-0.00119666
-0.00123191
-0.00125316
-0.00126048
-0.00125391
-0.00123344
-0.001199
-0.00115052
-0.00108787
-0.0010109
-0.000919409
-0.000813187
-0.000692005
-0.000555606
-0.000403704
-0.00023599
-5.21568e-05
0.000148094
0.00036506
0.000599055
0.000850402
0.00111943
0.00140645
0.0017118
0.00203582
0.00237885
0.00274124
0.00312331
0.00352539
0.00394784
0.00439098
0.00485517
0.00534073
0.00584797
0.00637724
0.00692889
0.0075033
0.00810081
0.00872179
0.0093666
0.0100356
0.0107293
0.0114479
0.012192
0.0129618
0.0137579
0.0145808
0.0154308
0.0163084
0.0172142
0.0181485
0.0191119
0.0201049
0.0211279
0.0221816
0.0232663
0.0243827
0.0255312
0.0267125
0.0279271
0.0291757
0.0304587
0.0317768
0.0331304
0.0345202
0.0359466
0.0374102
0.0389113
0.0404504
0.0420279
0.0436442
0.0452996
0.0469943
0.0487285
0.0505024
0.0523159
0.054169
0.0560614
0.0579929
0.0599629
0.0619708
0.0640157
0.0660965
0.0682119
0.0703604
0.0725402
0.0747492
0.076985
0.0792449
0.0815258
0.0838244
0.0861369
0.0884592
0.0907868
0.0931147
0.0954378
0.0977503
0.100046
0.10232
0.104563
0.10677
0.108934
0.111047
0.113101
0.11509
0.117005
0.11884
0.120588
0.122241
0.123794
0.12524
0.126575
0.127793
0.128891
0.129866
0.130715
0.131438
0.132035
0.132506
0.132853
0.133079
0.133188
0.133184
0.133072
0.132859
0.132551
0.132155
0.131677
0.131126
0.130508
0.129829
0.129095
0.128312
0.127489
0.126636
0.125678
0.124548
0.00462771
0.00403122
0.00353532
0.00310303
0.00269232
0.00230483
0.00194263
0.00160466
0.00128989
0.000997519
0.000726769
0.000476872
0.00024707
3.66272e-05
-0.000155159
-0.000328969
-0.000485454
-0.000625218
-0.000748809
-0.000856716
-0.000949392
-0.00102723
-0.00109058
-0.00113972
-0.00117486
-0.00119619
-0.00120382
-0.00119781
-0.00117814
-0.00114478
-0.00109764
-0.00103661
-0.000961508
-0.00087213
-0.000768264
-0.000649668
-0.00051606
-0.000367128
-0.000202554
-2.20267e-05
0.000174765
0.000388148
0.000618461
0.00086604
0.00113121
0.00141431
0.00171568
0.00203565
0.00237459
0.00273282
0.00311066
0.00350846
0.00392656
0.0043653
0.00482501
0.00530598
0.00580854
0.00633304
0.00687981
0.00744921
0.00804157
0.00865722
0.00929654
0.00995988
0.0106476
0.0113601
0.0120977
0.0128608
0.0136498
0.0144652
0.0153074
0.0161768
0.0170738
0.017999
0.0189527
0.0199355
0.0209479
0.0219903
0.0230632
0.0241671
0.0253026
0.0264702
0.0276705
0.028904
0.0301713
0.031473
0.0328096
0.0341817
0.0355897
0.0370343
0.0385158
0.0400348
0.0415917
0.0431869
0.0448208
0.0464937
0.048206
0.0499577
0.051749
0.0535799
0.0554505
0.0573603
0.0593092
0.0612965
0.0633216
0.0653836
0.0674812
0.0696133
0.0717781
0.0739737
0.0761979
0.0784481
0.0807215
0.083015
0.0853248
0.0876471
0.0899773
0.0923107
0.0946421
0.0969661
0.0992765
0.101567
0.103831
0.106061
0.108251
0.110392
0.112477
0.114499
0.116449
0.11832
0.120106
0.121797
0.123389
0.124874
0.126246
0.127502
0.128635
0.129644
0.130525
0.131277
0.131899
0.132391
0.132755
0.132994
0.133111
0.13311
0.132996
0.132775
0.132454
0.13204
0.131538
0.130957
0.130304
0.129586
0.128808
0.127976
0.1271
0.126191
0.12517
0.123965
0.00491577
0.00427232
0.00373931
0.00327685
0.00283929
0.00242829
0.0020459
0.00169079
0.0013616
0.00105726
0.000776719
0.000518928
0.000282873
6.75707e-05
-0.000127902
-0.000304434
-0.000462865
-0.000603958
-0.000728411
-0.000836851
-0.000929849
-0.00100791
-0.00107145
-0.00112081
-0.0011563
-0.00117812
-0.00118643
-0.0011813
-0.00116273
-0.00113072
-0.00108516
-0.00102594
-0.000952869
-0.000865748
-0.000764354
-0.000648422
-0.000517648
-0.000371709
-0.000210285
-3.30574e-05
0.000160308
0.000370165
0.000596867
0.000840754
0.00110216
0.00138144
0.00167894
0.00199501
0.00232997
0.00268417
0.00305792
0.00345157
0.00386547
0.00429994
0.00475527
0.00523177
0.00572977
0.00624959
0.00679157
0.00735602
0.00794326
0.00855362
0.00918744
0.00984508
0.0105269
0.0112331
0.0119641
0.0127204
0.0135022
0.0143099
0.015144
0.0160049
0.0168929
0.0178085
0.0187522
0.0197245
0.0207257
0.0217563
0.0228168
0.0239077
0.0250294
0.0261827
0.0273679
0.0285856
0.0298363
0.0311207
0.0324394
0.0337928
0.0351815
0.036606
0.0380669
0.0395647
0.0410999
0.0426729
0.0442842
0.0459343
0.0476233
0.0493518
0.0511198
0.0529276