/*--------------------------------*- C++ -*----------------------------------*\
  =========                 |
  \\      /  F ield         | OpenFOAM: The Open Source CFD Toolbox
   \\    /   O peration     | Website:  https://openfoam.org
    \\  /    A nd           | Version:  7
     \\/     M anipulation  |
\*---------------------------------------------------------------------------*/
FoamFile
{
    version     2.0;
    format      ascii;
    class       surfaceScalarField;
    location    "0.125";
    object      phi;
}
// * * * * * * * * * * * * * * * * * * * * * * * * * * * * * * * * * * * * * //

dimensions      [0 3 -1 0 0 0 0];

internalField   nonuniform List<scalar> 
25360
(
6.24481e-11
-6.2446e-11
2.1184e-10
-1.49387e-10
3.74026e-10
-1.62191e-10
5.00182e-10
-1.26162e-10
5.62287e-10
-6.2103e-11
5.4524e-10
1.70435e-11
4.42184e-10
1.03046e-10
2.51543e-10
1.90645e-10
-2.49947e-11
2.76535e-10
-3.83667e-10
3.58679e-10
-8.19527e-10
4.35856e-10
-1.32688e-09
5.0736e-10
-1.89971e-09
5.72831e-10
-2.53186e-09
6.32152e-10
-3.21723e-09
6.85382e-10
-3.94993e-09
7.32703e-10
-4.72431e-09
7.74377e-10
-5.53504e-09
8.10727e-10
-6.37713e-09
8.42091e-10
-7.24597e-09
8.68832e-10
-8.13731e-09
8.9134e-10
-9.0473e-09
9.09987e-10
-9.97243e-09
9.2513e-10
-1.09096e-08
9.37129e-10
-1.18559e-08
9.4632e-10
-1.28089e-08
9.53018e-10
-1.37664e-08
9.57529e-10
-1.47266e-08
9.60138e-10
-1.56877e-08
9.61088e-10
-1.66483e-08
9.60615e-10
-1.76072e-08
9.58934e-10
-1.85634e-08
9.56236e-10
-1.95161e-08
9.52696e-10
-2.04646e-08
9.48473e-10
-2.14083e-08
9.43706e-10
-2.23468e-08
9.38514e-10
-2.32798e-08
9.32999e-10
-2.42071e-08
9.27258e-10
-2.51285e-08
9.21382e-10
-2.60439e-08
9.15442e-10
-2.69534e-08
9.09493e-10
-2.7857e-08
9.03585e-10
-2.87548e-08
8.97768e-10
-2.96469e-08
8.9209e-10
-3.05334e-08
8.86585e-10
-3.14147e-08
8.81282e-10
-3.22909e-08
8.76207e-10
-3.31623e-08
8.71387e-10
-3.40292e-08
8.66839e-10
-3.48917e-08
8.62578e-10
-3.57504e-08
8.58625e-10
-3.66054e-08
8.55004e-10
-3.74571e-08
8.51726e-10
-3.83059e-08
8.48797e-10
-3.91521e-08
8.46222e-10
-3.99961e-08
8.44014e-10
-4.08383e-08
8.42183e-10
-4.1679e-08
8.40735e-10
-4.25187e-08
8.39668e-10
-4.33577e-08
8.38983e-10
-4.41964e-08
8.38678e-10
-4.50351e-08
8.38751e-10
-4.58743e-08
8.39191e-10
-4.67143e-08
8.39982e-10
-4.75554e-08
8.41115e-10
-4.8398e-08
8.42575e-10
-4.92423e-08
8.44341e-10
-5.00887e-08
8.46384e-10
-5.09374e-08
8.4867e-10
-5.17886e-08
8.51165e-10
-5.26424e-08
8.53829e-10
-5.3499e-08
8.56616e-10
-5.43585e-08
8.5947e-10
-5.52208e-08
8.62327e-10
-5.60859e-08
8.6512e-10
-5.69537e-08
8.67776e-10
-5.78239e-08
8.70213e-10
-5.86963e-08
8.72338e-10
-5.95703e-08
8.74051e-10
-6.04456e-08
8.75249e-10
-6.13214e-08
8.75816e-10
-6.2197e-08
8.75629e-10
-6.30716e-08
8.74556e-10
-6.3944e-08
8.72454e-10
-6.48132e-08
8.69175e-10
-6.56778e-08
8.64561e-10
-6.65362e-08
8.58449e-10
-6.73869e-08
8.50665e-10
-6.82279e-08
8.41028e-10
-6.90572e-08
8.29345e-10
-6.98727e-08
8.15423e-10
-7.06717e-08
7.99059e-10
-7.14518e-08
7.80051e-10
-7.221e-08
7.58187e-10
-7.29432e-08
7.33255e-10
-7.36483e-08
7.0504e-10
-7.43216e-08
6.7333e-10
-7.49595e-08
6.37918e-10
-7.55581e-08
5.986e-10
-7.61133e-08
5.55179e-10
-7.66208e-08
5.07468e-10
-7.7076e-08
4.55291e-10
-7.74745e-08
3.9849e-10
-7.78115e-08
3.36926e-10
-7.8082e-08
2.70483e-10
-7.8281e-08
1.99068e-10
-7.84036e-08
1.22617e-10
-7.84447e-08
4.10977e-11
-7.83993e-08
-4.5481e-11
-7.82622e-08
-1.37068e-10
-7.80286e-08
-2.33566e-10
-7.76938e-08
-3.34828e-10
-7.72531e-08
-4.40656e-10
-7.67023e-08
-5.50797e-10
-7.60374e-08
-6.64936e-10
-7.52547e-08
-7.82696e-10
-7.43511e-08
-9.03634e-10
-7.33238e-08
-1.02724e-09
-7.21709e-08
-1.15294e-09
-7.08908e-08
-1.28009e-09
-6.94828e-08
-1.40798e-09
-6.7947e-08
-1.53584e-09
-6.62842e-08
-1.66283e-09
-6.44961e-08
-1.78806e-09
-6.25855e-08
-1.91059e-09
-6.05561e-08
-2.02941e-09
-5.84126e-08
-2.14351e-09
-5.61608e-08
-2.25182e-09
-5.38075e-08
-2.35326e-09
-5.13607e-08
-2.44676e-09
-4.88295e-08
-2.53122e-09
-4.62239e-08
-2.60559e-09
-4.35551e-08
-2.66883e-09
-4.08352e-08
-2.71994e-09
-3.80772e-08
-2.75799e-09
-3.52951e-08
-2.7821e-09
-3.25036e-08
-2.79149e-09
-2.97181e-08
-2.78547e-09
-2.69547e-08
-2.76342e-09
-2.42298e-08
-2.72488e-09
-2.15603e-08
-2.66948e-09
-1.89633e-08
-2.59698e-09
-1.64561e-08
-2.50726e-09
-1.40557e-08
-2.40036e-09
-1.17793e-08
-2.27642e-09
-9.64354e-09
-2.13575e-09
-7.66477e-09
-1.97877e-09
-5.85869e-09
-1.80608e-09
-4.24022e-09
-1.61847e-09
-2.82329e-09
-1.41694e-09
-1.62048e-09
-1.20281e-09
-6.42615e-10
-9.7786e-10
1.02028e-10
-7.44641e-10
6.08996e-10
-5.06968e-10
8.7979e-10
-2.70794e-10
9.25817e-10
-4.60265e-11
7.7507e-10
1.50747e-10
4.8472e-10
2.90352e-10
1.64844e-10
3.19875e-10
1.64843e-10
1.52026e-10
-2.14466e-10
4.14191e-10
-4.1157e-10
6.61764e-10
-4.09755e-10
8.07592e-10
-2.71985e-10
7.92475e-10
-4.69842e-11
5.7974e-10
2.29781e-10
1.49681e-10
5.33114e-10
-5.05343e-10
8.45659e-10
-1.38446e-09
1.15565e-09
-2.48105e-09
1.45526e-09
-3.78455e-09
1.73935e-09
-5.28195e-09
2.00475e-09
-6.95873e-09
2.2496e-09
-8.79961e-09
2.47302e-09
-1.07891e-08
2.67486e-09
-1.29118e-08
2.85544e-09
-1.51529e-08
3.01547e-09
-1.74981e-08
3.15591e-09
-1.99339e-08
3.27787e-09
-2.24476e-08
3.38259e-09
-2.50276e-08
3.47136e-09
-2.76631e-08
3.54547e-09
-3.03442e-08
3.60624e-09
-3.3062e-08
3.65494e-09
-3.58085e-08
3.6928e-09
-3.85765e-08
3.72098e-09
-4.13595e-08
3.74061e-09
-4.41521e-08
3.75271e-09
-4.69493e-08
3.75824e-09
-4.97467e-08
3.75808e-09
-5.25408e-08
3.75306e-09
-5.53285e-08
3.74389e-09
-5.81071e-08
3.73126e-09
-6.08743e-08
3.71576e-09
-6.36286e-08
3.69793e-09
-6.63683e-08
3.67825e-09
-6.90924e-08
3.65714e-09
-7.18002e-08
3.63498e-09
-7.44909e-08
3.61209e-09
-7.71642e-08
3.58877e-09
-7.982e-08
3.56528e-09
-8.24582e-08
3.54181e-09
-8.5079e-08
3.51859e-09
-8.76827e-08
3.49578e-09
-9.02696e-08
3.47351e-09
-9.28403e-08
3.45194e-09
-9.53953e-08
3.43117e-09
-9.79352e-08
3.4113e-09
-1.00461e-07
3.39243e-09
-1.02973e-07
3.37463e-09
-1.05472e-07
3.35796e-09
-1.0796e-07
3.3425e-09
-1.10436e-07
3.32829e-09
-1.12903e-07
3.31539e-09
-1.1536e-07
3.30383e-09
-1.1781e-07
3.29364e-09
-1.20253e-07
3.28487e-09
-1.22689e-07
3.27751e-09
-1.25121e-07
3.27157e-09
-1.27549e-07
3.26706e-09
-1.29975e-07
3.26397e-09
-1.32398e-07
3.26228e-09
-1.34821e-07
3.26194e-09
-1.37244e-07
3.26292e-09
-1.39668e-07
3.26515e-09
-1.42094e-07
3.26856e-09
-1.44523e-07
3.27307e-09
-1.46955e-07
3.27857e-09
-1.49391e-07
3.28491e-09
-1.51832e-07
3.29197e-09
-1.54278e-07
3.29958e-09
-1.56729e-07
3.30755e-09
-1.59185e-07
3.31567e-09
-1.61646e-07
3.32369e-09
-1.64112e-07
3.33136e-09
-1.66583e-07
3.33837e-09
-1.69057e-07
3.34441e-09
-1.71534e-07
3.34913e-09
-1.74012e-07
3.35214e-09
-1.7649e-07
3.35303e-09
-1.78965e-07
3.35136e-09
-1.81436e-07
3.34666e-09
-1.839e-07
3.33841e-09
-1.86354e-07
3.32608e-09
-1.88794e-07
3.30911e-09
-1.91216e-07
3.28689e-09
-1.93617e-07
3.25879e-09
-1.9599e-07
3.22416e-09
-1.98331e-07
3.1823e-09
-2.00634e-07
3.13251e-09
-2.02893e-07
3.07405e-09
-2.051e-07
3.00617e-09
-2.07248e-07
2.92809e-09
-2.09329e-07
2.83904e-09
-2.11334e-07
2.73823e-09
-2.13254e-07
2.62487e-09
-2.15079e-07
2.49819e-09
-2.16798e-07
2.35742e-09
-2.18401e-07
2.20181e-09
-2.19877e-07
2.03066e-09
-2.21213e-07
1.8433e-09
-2.22397e-07
1.6391e-09
-2.23416e-07
1.4175e-09
-2.24257e-07
1.17803e-09
-2.24907e-07
9.20281e-10
-2.25351e-07
6.43958e-10
-2.25578e-07
3.48876e-10
-2.25572e-07
3.49766e-11
-2.25319e-07
-2.97653e-10
-2.24808e-07
-6.48769e-10
-2.24023e-07
-1.01795e-09
-2.22954e-07
-1.4046e-09
-2.21586e-07
-1.80792e-09
-2.1991e-07
-2.22689e-09
-2.17915e-07
-2.66029e-09
-2.15591e-07
-3.10666e-09
-2.1293e-07
-3.5643e-09
-2.09926e-07
-4.03126e-09
-2.06574e-07
-4.50537e-09
-2.0287e-07
-4.9842e-09
-1.98813e-07
-5.46508e-09
-1.94403e-07
-5.94511e-09
-1.89645e-07
-6.42116e-09
-1.84543e-07
-6.88992e-09
-1.79106e-07
-7.34787e-09
-1.73344e-07
-7.79133e-09
-1.67271e-07
-8.21651e-09
-1.60903e-07
-8.6195e-09
-1.5426e-07
-8.99633e-09
-1.47364e-07
-9.34302e-09
-1.40239e-07
-9.65559e-09
-1.32915e-07
-9.93014e-09
-1.25421e-07
-1.01629e-08
-1.17791e-07
-1.03502e-08
-1.1006e-07
-1.04887e-08
-1.02267e-07
-1.05751e-08
-9.44518e-08
-1.06066e-08
-8.66566e-08
-1.05808e-08
-7.89246e-08
-1.04953e-08
-7.13009e-08
-1.03486e-08
-6.3831e-08
-1.01394e-08
-5.65611e-08
-9.86685e-09
-4.95377e-08
-9.53066e-09
-4.2807e-08
-9.13107e-09
-3.64145e-08
-8.66887e-09
-3.04049e-08
-8.1454e-09
-2.4821e-08
-7.56265e-09
-1.97038e-08
-6.92332e-09
-1.50913e-08
-6.23092e-09
-1.10182e-08
-5.49007e-09
-7.5142e-09
-4.70677e-09
-4.603e-09
-3.88907e-09
-2.2996e-09
-3.04803e-09
-6.07175e-10
-2.1994e-09
4.88247e-10
-1.36622e-09
1.02545e-09
-5.8323e-10
1.07963e-09
9.65622e-11
7.78241e-10
5.91746e-10
3.18741e-10
7.79382e-10
4.83582e-10
1.68575e-10
-3.83045e-10
4.21193e-10
-6.64187e-10
6.04717e-10
-5.93272e-10
6.13868e-10
-2.81136e-10
3.74624e-10
1.9226e-10
-1.61386e-10
7.65793e-10
-1.02212e-09
1.39385e-09
-2.21991e-09
2.04346e-09
-3.75546e-09
2.69121e-09
-5.621e-09
3.3208e-09
-7.80273e-09
3.92109e-09
-1.02828e-08
4.48478e-09
-1.30405e-08
5.00739e-09
-1.6054e-08
5.4865e-09
-1.93004e-08
5.92125e-09
-2.27569e-08
6.31192e-09
-2.6401e-08
6.6596e-09
-3.02111e-08
6.966e-09
-3.41665e-08
7.23324e-09
-3.82476e-08
7.46372e-09
-4.24363e-08
7.66001e-09
-4.67156e-08
7.82477e-09
-5.107e-08
7.96065e-09
-5.54854e-08
8.07031e-09
-5.99489e-08
8.1563e-09
-6.4449e-08
8.22108e-09
-6.89753e-08
8.267e-09
-7.35189e-08
8.29624e-09
-7.80715e-08
8.31087e-09
-8.26262e-08
8.31279e-09
-8.71769e-08
8.30373e-09
-9.17183e-08
8.2853e-09
-9.6246e-08
8.25896e-09
-1.00756e-07
8.226e-09
-1.05246e-07
8.18761e-09
-1.09713e-07
8.14486e-09
-1.14154e-07
8.09867e-09
-1.18569e-07
8.04988e-09
-1.22956e-07
7.99924e-09
-1.27315e-07
7.94738e-09
-1.31644e-07
7.8949e-09
-1.35945e-07
7.84228e-09
-1.40216e-07
7.78998e-09
-1.44459e-07
7.73839e-09
-1.48673e-07
7.68785e-09
-1.5286e-07
7.63867e-09
-1.5702e-07
7.5911e-09
-1.61154e-07
7.5454e-09
-1.65263e-07
7.50175e-09
-1.69349e-07
7.46035e-09
-1.73412e-07
7.42136e-09
-1.77455e-07
7.38491e-09
-1.81478e-07
7.35114e-09
-1.85482e-07
7.32014e-09
-1.89471e-07
7.292e-09
-1.93444e-07
7.2668e-09
-1.97403e-07
7.24459e-09
-2.01351e-07
7.22542e-09
-2.05289e-07
7.20929e-09
-2.09218e-07
7.1962e-09
-2.1314e-07
7.18613e-09
-2.17057e-07
7.17902e-09
-2.2097e-07
7.1748e-09
-2.2488e-07
7.17334e-09
-2.2879e-07
7.17453e-09
-2.32699e-07
7.1782e-09
-2.3661e-07
7.18413e-09
-2.40524e-07
7.19209e-09
-2.44441e-07
7.20178e-09
-2.48362e-07
7.21288e-09
-2.52287e-07
7.22503e-09
-2.56217e-07
7.2378e-09
-2.60153e-07
7.25072e-09
-2.64092e-07
7.26325e-09
-2.68036e-07
7.27482e-09
-2.71982e-07
7.28477e-09
-2.7593e-07
7.2924e-09
-2.79878e-07
7.29694e-09
-2.83823e-07
7.29755e-09
-2.87763e-07
7.29334e-09
-2.91695e-07
7.28332e-09
-2.95615e-07
7.26648e-09
-2.99519e-07
7.24171e-09
-3.034e-07
7.20784e-09
-3.07255e-07
7.16364e-09
-3.11076e-07
7.1078e-09
-3.14856e-07
7.03897e-09
-3.18588e-07
6.95573e-09
-3.22262e-07
6.8566e-09
-3.25869e-07
6.74004e-09
-3.294e-07
6.60448e-09
-3.32842e-07
6.44832e-09
-3.36184e-07
6.2699e-09
-3.39412e-07
6.06758e-09
-3.42514e-07
5.83968e-09
-3.45473e-07
5.58455e-09
-3.48276e-07
5.30054e-09
-3.50904e-07
4.98604e-09
-3.53342e-07
4.63951e-09
-3.55571e-07
4.25945e-09
-3.57572e-07
3.84448e-09
-3.59326e-07
3.39333e-09
-3.60814e-07
2.90487e-09
-3.62014e-07
2.37811e-09
-3.62906e-07
1.81228e-09
-3.63469e-07
1.20682e-09
-3.63681e-07
5.6142e-10
-3.63522e-07
-1.23965e-10
-3.62971e-07
-8.49061e-10
-3.62006e-07
-1.61325e-09
-3.60609e-07
-2.41557e-09
-3.58759e-07
-3.25462e-09
-3.56438e-07
-4.12863e-09
-3.5363e-07
-5.03535e-09
-3.50318e-07
-5.97207e-09
-3.46489e-07
-6.9356e-09
-3.42131e-07
-7.92224e-09
-3.37234e-07
-8.9278e-09
-3.31792e-07
-9.94757e-09
-3.258e-07
-1.09763e-08
-3.19257e-07
-1.20083e-08
-3.12164e-07
-1.30374e-08
-3.04529e-07
-1.40569e-08
-2.96359e-07
-1.50597e-08
-2.87668e-07
-1.60384e-08
-2.78474e-07
-1.69852e-08
-2.68799e-07
-1.7892e-08
-2.58668e-07
-1.87506e-08
-2.48112e-07
-1.95526e-08
-2.37165e-07
-2.02896e-08
-2.25867e-07
-2.09532e-08
-2.14262e-07
-2.15353e-08
-2.02397e-07
-2.20278e-08
-1.90324e-07
-2.24231e-08
-1.78099e-07
-2.27141e-08
-1.6578e-07
-2.28941e-08
-1.53429e-07
-2.29571e-08
-1.41112e-07
-2.2898e-08
-1.28895e-07
-2.27121e-08
-1.16848e-07
-2.23961e-08
-1.0504e-07
-2.19473e-08
-9.35425e-08
-2.13643e-08
-8.24266e-08
-2.06465e-08
-7.17629e-08
-1.97948e-08
-6.16206e-08
-1.88111e-08
-5.20673e-08
-1.76987e-08
-4.31676e-08
-1.64624e-08
-3.49824e-08
-1.51085e-08
-2.75678e-08
-1.36455e-08
-2.09736e-08
-1.20843e-08
-1.52414e-08
-1.04389e-08
-1.04026e-08
-8.72791e-09
-6.47445e-09
-6.97617e-09
-3.45611e-09
-5.21774e-09
-1.32211e-09
-3.50022e-09
-1.39435e-11
-1.89139e-09
5.71491e-10
-4.88872e-10
5.94841e-10
5.68397e-10
2.89631e-10
1.0846e-09
7.73215e-10
1.32826e-10
-5.15873e-10
2.85525e-10
-8.16885e-10
2.96968e-10
-6.04714e-10
5.50628e-11
-3.92462e-11
-5.19613e-10
7.66937e-10
-1.48018e-09
1.72635e-09
-2.85831e-09
2.77197e-09
-4.66864e-09
3.85378e-09
-6.9126e-09
4.93516e-09
-9.58152e-09
5.98971e-09
-1.26593e-08
6.99887e-09
-1.61246e-08
7.95004e-09
-1.99523e-08
8.83512e-09
-2.41152e-08
9.64945e-09
-2.8585e-08
1.0391e-08
-3.33326e-08
1.10596e-08
-3.83297e-08
1.16566e-08
-4.35482e-08
1.21846e-08
-4.89616e-08
1.26466e-08
-5.45445e-08
1.30465e-08
-6.02729e-08
1.33884e-08
-6.61246e-08
1.36765e-08
-7.2079e-08
1.39151e-08
-7.81174e-08
1.41087e-08
-8.42225e-08
1.42614e-08
-9.03789e-08
1.43774e-08
-9.65725e-08
1.44606e-08
-1.02791e-07
1.45147e-08
-1.09023e-07
1.45432e-08
-1.1526e-07
1.45493e-08
-1.21492e-07
1.45359e-08
-1.27713e-07
1.45059e-08
-1.33915e-07
1.44616e-08
-1.40095e-07
1.44055e-08
-1.46247e-07
1.43395e-08
-1.52367e-07
1.42654e-08
-1.58453e-07
1.4185e-08
-1.64503e-07
1.40996e-08
-1.70515e-07
1.40106e-08
-1.76486e-07
1.39192e-08
-1.82418e-07
1.38263e-08
-1.88308e-07
1.37328e-08
-1.94158e-07
1.36396e-08
-1.99967e-07
1.35474e-08
-2.05736e-07
1.34567e-08
-2.11465e-07
1.33681e-08
-2.17156e-07
1.32822e-08
-2.2281e-07
1.31993e-08
-2.28428e-07
1.31198e-08
-2.34012e-07
1.3044e-08
-2.39563e-07
1.29723e-08
-2.45083e-07
1.29048e-08
-2.50573e-07
1.28419e-08
-2.56037e-07
1.27836e-08
-2.61475e-07
1.27302e-08
-2.6689e-07
1.26818e-08
-2.72284e-07
1.26385e-08
-2.77659e-07
1.26003e-08
-2.83017e-07
1.25672e-08
-2.8836e-07
1.25393e-08
-2.9369e-07
1.25165e-08
-2.9901e-07
1.24987e-08
-3.04321e-07
1.24858e-08
-3.09625e-07
1.24775e-08
-3.14924e-07
1.24736e-08
-3.2022e-07
1.24738e-08
-3.25514e-07
1.24778e-08
-3.30807e-07
1.24851e-08
-3.361e-07
1.24952e-08
-3.41395e-07
1.25076e-08
-3.46691e-07
1.25215e-08
-3.5199e-07
1.25362e-08
-3.5729e-07
1.2551e-08
-3.62591e-07
1.25648e-08
-3.67893e-07
1.25767e-08
-3.73194e-07
1.25855e-08
-3.78491e-07
1.259e-08
-3.83783e-07
1.25888e-08
-3.89066e-07
1.25806e-08
-3.94337e-07
1.25637e-08
-3.9959e-07
1.25365e-08
-4.04821e-07
1.24972e-08
-4.10023e-07
1.24439e-08
-4.1519e-07
1.23746e-08
-4.20313e-07
1.22871e-08
-4.25385e-07
1.21793e-08
-4.30395e-07
1.20489e-08
-4.35332e-07
1.18933e-08
-4.40185e-07
1.171e-08
-4.44942e-07
1.14965e-08
-4.49588e-07
1.12501e-08
-4.54107e-07
1.0968e-08
-4.58485e-07
1.06475e-08
-4.62703e-07
1.02858e-08
-4.66744e-07
9.88008e-09
-4.70587e-07
9.42751e-09
-4.74211e-07
8.92537e-09
-4.77596e-07
8.37098e-09
-4.80719e-07
7.76175e-09
-4.83554e-07
7.09524e-09
-4.86079e-07
6.36915e-09
-4.88267e-07
5.58141e-09
-4.90092e-07
4.73017e-09
-4.91528e-07
3.8139e-09
-4.92547e-07
2.83136e-09
-4.93122e-07
1.78172e-09
-4.93225e-07
6.64559e-10
-4.92829e-07
-5.20052e-10
-4.91907e-07
-1.77153e-09
-4.90431e-07
-3.08871e-09
-4.88377e-07
-4.46979e-09
-4.85719e-07
-5.91234e-09
-4.82435e-07
-7.41317e-09
-4.78502e-07
-8.96837e-09
-4.73901e-07
-1.05733e-08
-4.68614e-07
-1.22223e-08
-4.62627e-07
-1.39091e-08
-4.55928e-07
-1.56266e-08
-4.48509e-07
-1.73666e-08
-4.40365e-07
-1.91203e-08
-4.31496e-07
-2.08779e-08
-4.21904e-07
-2.2629e-08
-4.11599e-07
-2.43623e-08
-4.00593e-07
-2.60658e-08
-3.88904e-07
-2.77269e-08
-3.76557e-07
-2.93326e-08
-3.6358e-07
-3.08693e-08
-3.50007e-07
-3.23231e-08
-3.3588e-07
-3.368e-08
-3.21244e-07
-3.49258e-08
-3.0615e-07
-3.60467e-08
-2.90657e-07
-3.70287e-08
-2.74826e-07
-3.78587e-08
-2.58725e-07
-3.85238e-08
-2.42427e-07
-3.90121e-08
-2.26009e-07
-3.93126e-08
-2.09551e-07
-3.94152e-08
-1.93137e-07
-3.93112e-08
-1.76856e-07
-3.89934e-08
-1.60796e-07
-3.84559e-08
-1.45049e-07
-3.76946e-08
-1.29706e-07
-3.67072e-08
-1.1486e-07
-3.54932e-08
-1.006e-07
-3.40542e-08
-8.70172e-08
-3.23941e-08
-7.41969e-08
-3.0519e-08
-6.22216e-08
-2.84376e-08
-5.11683e-08
-2.61618e-08
-4.11072e-08
-2.37067e-08
-3.20995e-08
-2.1092e-08
-2.41956e-08
-1.83428e-08
-1.74319e-08
-1.54916e-08
-1.18271e-08
-1.25809e-08
-7.37749e-09
-9.66739e-09
-4.05055e-09
-6.82716e-09
-1.77763e-09
-4.16432e-09
-4.445e-10
-1.822e-09
1.2004e-10
3.85832e-12
1.55088e-10
1.04955e-09
9.28303e-10
6.77012e-11
-5.8357e-10
5.71578e-11
-8.06345e-10
-1.83401e-10
-3.64155e-10
-7.63007e-10
5.40365e-10
-1.75966e-09
1.76359e-09
-3.22596e-09
3.19266e-09
-5.19351e-09
4.73953e-09
-7.67683e-09
6.3371e-09
-1.06767e-08
7.93501e-09
-1.4183e-08
9.49608e-09
-1.81777e-08
1.09935e-08
-2.26363e-08
1.24087e-08
-2.75304e-08
1.37292e-08
-3.28284e-08
1.49475e-08
-3.84975e-08
1.606e-08
-4.45038e-08
1.70659e-08
-5.08139e-08
1.79667e-08
-5.73948e-08
1.87655e-08
-6.42147e-08
1.94665e-08
-7.12431e-08
2.0075e-08
-7.84514e-08
2.05967e-08
-8.58126e-08
2.10377e-08
-9.33018e-08
2.14043e-08
-1.00896e-07
2.17029e-08
-1.08574e-07
2.19395e-08
-1.16317e-07
2.21203e-08
-1.24107e-07
2.22509e-08
-1.31929e-07
2.23371e-08
-1.3977e-07
2.23837e-08
-1.47617e-07
2.23958e-08
-1.55459e-07
2.23778e-08
-1.63287e-07
2.23338e-08
-1.71093e-07
2.22677e-08
-1.7887e-07
2.21827e-08
-1.86612e-07
2.20821e-08
-1.94315e-07
2.19686e-08
-2.01975e-07
2.18448e-08
-2.09588e-07
2.17129e-08
-2.17153e-07
2.15749e-08
-2.24666e-07
2.14327e-08
-2.32128e-07
2.12878e-08
-2.39537e-07
2.11417e-08
-2.46893e-07
2.09955e-08
-2.54196e-07
2.08504e-08
-2.61447e-07
2.07074e-08
-2.68646e-07
2.05673e-08
-2.75794e-07
2.04309e-08
-2.82894e-07
2.02988e-08
-2.89946e-07
2.01717e-08
-2.96952e-07
2.00501e-08
-3.03914e-07
1.99345e-08
-3.10834e-07
1.98252e-08
-3.17715e-07
1.97225e-08
-3.24558e-07
1.96269e-08
-3.31367e-07
1.95386e-08
-3.38142e-07
1.94576e-08
-3.44888e-07
1.93843e-08
-3.51607e-07
1.93186e-08
-3.583e-07
1.92606e-08
-3.64971e-07
1.92103e-08
-3.71622e-07
1.91676e-08
-3.78256e-07
1.91323e-08
-3.84874e-07
1.91043e-08
-3.9148e-07
1.90831e-08
-3.98075e-07
1.90685e-08
-4.04661e-07
1.90599e-08
-4.1124e-07
1.90567e-08
-4.17813e-07
1.90583e-08
-4.24382e-07
1.9064e-08
-4.30947e-07
1.90727e-08
-4.37509e-07
1.90836e-08
-4.44068e-07
1.90953e-08
-4.50624e-07
1.91068e-08
-4.57175e-07
1.91164e-08
-4.63722e-07
1.91228e-08
-4.7026e-07
1.9124e-08
-4.76788e-07
1.91184e-08
-4.83303e-07
1.91037e-08
-4.89801e-07
1.90779e-08
-4.96275e-07
1.90385e-08
-5.02722e-07
1.8983e-08
-5.09134e-07
1.89088e-08
-5.15503e-07
1.88128e-08
-5.2182e-07
1.86922e-08
-5.28077e-07
1.85436e-08
-5.34261e-07
1.83637e-08
-5.40361e-07
1.81491e-08
-5.46364e-07
1.7896e-08
-5.52255e-07
1.76007e-08
-5.58017e-07
1.72592e-08
-5.63635e-07
1.68677e-08
-5.69089e-07
1.64219e-08
-5.74359e-07
1.59177e-08
-5.79424e-07
1.53511e-08
-5.84262e-07
1.47178e-08
-5.88848e-07
1.40137e-08
-5.93158e-07
1.32348e-08
-5.97164e-07
1.23771e-08
-6.00839e-07
1.14368e-08
-6.04154e-07
1.04104e-08
-6.07079e-07
9.29445e-09
-6.09584e-07
8.08608e-09
-6.11636e-07
6.78261e-09
-6.13204e-07
5.38186e-09
-6.14255e-07
3.88215e-09
-6.14756e-07
2.28238e-09
-6.14673e-07
5.8209e-10
-6.13975e-07
-1.21847e-09
-6.12628e-07
-3.11824e-09
-6.10602e-07
-5.11533e-09
-6.07864e-07
-7.20688e-09
-6.04388e-07
-9.38908e-09
-6.00144e-07
-1.1657e-08
-5.95108e-07
-1.40047e-08
-5.89256e-07
-1.6425e-08
-5.82569e-07
-1.89095e-08
-5.75029e-07
-2.14487e-08
-5.66624e-07
-2.40316e-08
-5.57344e-07
-2.66463e-08
-5.47185e-07
-2.92794e-08
-5.36147e-07
-3.19163e-08
-5.24234e-07
-3.45415e-08
-5.11458e-07
-3.7138e-08
-4.97836e-07
-3.96882e-08
-4.8339e-07
-4.21733e-08
-4.68148e-07
-4.45739e-08
-4.52148e-07
-4.68699e-08
-4.3543e-07
-4.90408e-08
-4.18044e-07
-5.10658e-08
-4.00046e-07
-5.2924e-08
-3.81498e-07
-5.45948e-08
-3.62469e-07
-5.60578e-08
-3.43034e-07
-5.72934e-08
-3.23275e-07
-5.82828e-08
-3.03279e-07
-5.90083e-08
-2.83138e-07
-5.94538e-08
-2.62948e-07
-5.96044e-08
-2.42812e-07
-5.94475e-08
-2.22833e-07
-5.89723e-08
-2.03119e-07
-5.81705e-08
-1.83777e-07
-5.70362e-08
-1.64918e-07
-5.55662e-08
-1.46651e-07
-5.37602e-08
-1.29084e-07
-5.16212e-08
-1.12323e-07
-4.91553e-08
-9.64692e-08
-4.63724e-08
-8.16205e-08
-4.32864e-08
-6.78664e-08
-3.99159e-08
-5.52885e-08
-3.62846e-08
-4.39575e-08
-3.2423e-08
-3.39307e-08
-2.83695e-08
-2.52491e-08
-2.41732e-08
-1.79334e-08
-1.98966e-08
-1.19796e-08
-1.56212e-08
-7.35376e-09
-1.1453e-08
-3.98556e-09
-7.53252e-09
-1.76144e-09
-4.04613e-09
-5.17583e-10
-1.24e-09
-2.99729e-11
5.61941e-10
8.98328e-10
-1.37193e-11
-5.69852e-10
-2.29099e-10
-5.90968e-10
-7.78411e-10
1.85156e-10
-1.75996e-09
1.52191e-09
-3.24476e-09
3.24839e-09
-5.28077e-09
5.22865e-09
-7.89634e-09
7.3551e-09
-1.11035e-08
9.54428e-09
-1.49009e-08
1.17324e-08
-1.92762e-08
1.38714e-08
-2.42089e-08
1.59262e-08
-2.96717e-08
1.78715e-08
-3.56329e-08
1.96904e-08
-4.20575e-08
2.13722e-08
-4.89088e-08
2.29113e-08
-5.6149e-08
2.43061e-08
-6.37403e-08
2.5558e-08
-7.16454e-08
2.66706e-08
-7.98282e-08
2.76493e-08
-8.8254e-08
2.85008e-08
-9.68899e-08
2.92326e-08
-1.05705e-07
2.98528e-08
-1.1467e-07
3.03698e-08
-1.2376e-07
3.07919e-08
-1.32948e-07
3.11277e-08
-1.42213e-07
3.13851e-08
-1.51534e-07
3.15723e-08
-1.60893e-07
3.16965e-08
-1.70275e-07
3.1765e-08
-1.79663e-07
3.17845e-08
-1.89046e-07
3.1761e-08
-1.98413e-07
3.17004e-08
-2.07753e-07
3.16078e-08
-2.17059e-07
3.14881e-08
-2.26322e-07
3.13457e-08
-2.35538e-07
3.11845e-08
-2.44701e-07
3.1008e-08
-2.53808e-07
3.08195e-08
-2.62855e-07
3.06218e-08
-2.7184e-07
3.04175e-08
-2.80761e-07
3.02088e-08
-2.89617e-07
2.99978e-08
-2.98408e-07
2.97862e-08
-3.07133e-07
2.95757e-08
-3.15793e-07
2.93677e-08
-3.24389e-07
2.91633e-08
-3.32922e-07
2.89638e-08
-3.41393e-07
2.87701e-08
-3.49805e-07
2.8583e-08
-3.58158e-07
2.84034e-08
-3.66455e-07
2.82319e-08
-3.74699e-07
2.80691e-08
-3.82892e-07
2.79155e-08
-3.91037e-07
2.77715e-08
-3.99136e-07
2.76375e-08
-4.07192e-07
2.75137e-08
-4.15208e-07
2.74005e-08
-4.23187e-07
2.72977e-08
-4.31132e-07
2.72056e-08
-4.39046e-07
2.71241e-08
-4.46932e-07
2.70531e-08
-4.54792e-07
2.69923e-08
-4.62629e-07
2.69413e-08
-4.70445e-07
2.68998e-08
-4.78244e-07
2.68671e-08
-4.86027e-07
2.68427e-08
-4.93796e-07
2.68256e-08
-5.01552e-07
2.68149e-08
-5.09298e-07
2.68095e-08
-5.17033e-07
2.6808e-08
-5.24758e-07
2.68091e-08
-5.32474e-07
2.68111e-08
-5.4018e-07
2.68122e-08
-5.47874e-07
2.68104e-08
-5.55554e-07
2.68034e-08
-5.63219e-07
2.67889e-08
-5.70865e-07
2.67641e-08
-5.78487e-07
2.67262e-08
-5.86082e-07
2.66722e-08
-5.93642e-07
2.65987e-08
-6.01161e-07
2.65021e-08
-6.08631e-07
2.63786e-08
-6.16042e-07
2.62244e-08
-6.23385e-07
2.6035e-08
-6.30647e-07
2.5806e-08
-6.37817e-07
2.55328e-08
-6.44878e-07
2.52105e-08
-6.51816e-07
2.48341e-08
-6.58614e-07
2.43982e-08
-6.65252e-07
2.38975e-08
-6.71711e-07
2.33265e-08
-6.77968e-07
2.26796e-08
-6.84002e-07
2.19511e-08
-6.89786e-07
2.11352e-08
-6.95294e-07
2.02263e-08
-7.00499e-07
1.92188e-08
-7.05372e-07
1.81071e-08
-7.09881e-07
1.68859e-08
-7.13994e-07
1.555e-08
-7.17678e-07
1.40947e-08
-7.20899e-07
1.25154e-08
-7.23621e-07
1.08083e-08
-7.25808e-07
8.96974e-09
-7.27423e-07
6.99698e-09
-7.28429e-07
4.88786e-09
-7.28788e-07
2.64105e-09
-7.28462e-07
2.5609e-10
-7.27414e-07
-2.26645e-09
-7.25607e-07
-4.92491e-09
-7.23006e-07
-7.71647e-09
-7.19576e-07
-1.0637e-08
-7.15284e-07
-1.36811e-08
-7.10099e-07
-1.68417e-08
-7.03993e-07
-2.01105e-08
-6.96941e-07
-2.34774e-08
-6.8892e-07
-2.69307e-08
-6.79912e-07
-3.04571e-08
-6.69902e-07
-3.40416e-08
-6.5888e-07
-3.76674e-08
-6.46844e-07
-4.13163e-08
-6.33792e-07
-4.4968e-08
-6.19732e-07
-4.86011e-08
-6.04678e-07
-5.21925e-08
-5.88648e-07
-5.57178e-08
-5.7167e-07
-5.91514e-08
-5.53778e-07
-6.24665e-08
-5.35012e-07
-6.56358e-08
-5.15421e-07
-6.86311e-08
-4.95063e-07
-7.14241e-08
-4.74001e-07
-7.39862e-08
-4.52307e-07
-7.62892e-08
-4.30059e-07
-7.83053e-08
-4.07345e-07
-8.00079e-08
-3.84256e-07
-8.13711e-08
-3.60894e-07
-8.23711e-08
-3.37362e-07
-8.29855e-08
-3.13772e-07
-8.31946e-08
-2.90238e-07
-8.29808e-08
-2.66881e-07
-8.23299e-08
-2.43821e-07
-8.12304e-08
-2.21182e-07
-7.96747e-08
-1.9909e-07
-7.76587e-08
-1.77668e-07
-7.51824e-08
-1.57038e-07
-7.22505e-08
-1.37322e-07
-6.88719e-08
-1.18633e-07
-6.50612e-08
-1.01081e-07
-6.08382e-08
-8.47675e-08
-5.62295e-08
-6.97831e-08
-5.1269e-08
-5.6207e-08
-4.59991e-08
-4.4103e-08
-4.04736e-08
-3.3517e-08
-3.47591e-08
-2.44737e-08
-2.894e-08
-1.6972e-08
-2.31229e-08
-1.09815e-08
-1.74435e-08
-6.43757e-09
-1.20764e-08
-3.23694e-09
-7.24675e-09
-1.2337e-09
-3.24324e-09
-2.35501e-10
-4.36251e-10
6.62827e-10
-1.03916e-10
-4.65945e-10
-5.50358e-10
-1.44516e-10
-1.4471e-09
1.0819e-09
-2.87665e-09
2.95146e-09
-4.89892e-09
5.27066e-09
-7.55384e-09
7.88357e-09
-1.08638e-08
1.06651e-08
-1.48364e-08
1.35169e-08
-1.94665e-08
1.63624e-08
-2.47385e-08
1.91434e-08
-3.06287e-08
2.18164e-08
-3.7107e-08
2.43498e-08
-4.41385e-08
2.67218e-08
-5.16849e-08
2.89186e-08
-5.9706e-08
3.09324e-08
-6.81605e-08
3.27606e-08
-7.70069e-08
3.44044e-08
-8.62043e-08
3.5868e-08
-9.57129e-08
3.71578e-08
-1.05494e-07
3.82821e-08
-1.15512e-07
3.92502e-08
-1.25731e-07
4.00722e-08
-1.3612e-07
4.07587e-08
-1.46649e-07
4.13205e-08
-1.57289e-07
4.17682e-08
-1.68017e-07
4.21124e-08
-1.78808e-07
4.23632e-08
-1.89641e-07
4.25304e-08
-2.005e-07
4.26232e-08
-2.11365e-07
4.26502e-08
-2.22224e-07
4.26197e-08
-2.33063e-07
4.2539e-08
-2.4387e-07
4.24151e-08
-2.54636e-07
4.22544e-08
-2.65353e-07
4.20626e-08
-2.76014e-07
4.18449e-08
-2.86612e-07
4.16061e-08
-2.97143e-07
4.13505e-08
-3.07603e-07
4.10819e-08
-3.17989e-07
4.08038e-08
-3.28299e-07
4.05191e-08
-3.38532e-07
4.02306e-08
-3.48687e-07
3.99408e-08
-3.58763e-07
3.96518e-08
-3.68761e-07
3.93656e-08
-3.78681e-07
3.90838e-08
-3.88525e-07
3.8808e-08
-3.98295e-07
3.85395e-08
-4.07991e-07
3.82795e-08
-4.17617e-07
3.80291e-08
-4.27174e-07
3.77891e-08
-4.36666e-07
3.75604e-08
-4.46094e-07
3.73436e-08
-4.55462e-07
3.71394e-08
-4.64772e-07
3.69482e-08
-4.74029e-07
3.67704e-08
-4.83235e-07
3.66063e-08
-4.92393e-07
3.64559e-08
-5.01507e-07
3.63195e-08
-5.10579e-07
3.61968e-08
-5.19614e-07
3.60878e-08
-5.28614e-07
3.59921e-08
-5.37582e-07
3.59092e-08
-5.46521e-07
3.58386e-08
-5.55433e-07
3.57794e-08
-5.64321e-07
3.57307e-08
-5.73187e-07
3.56914e-08
-5.82032e-07
3.56603e-08
-5.90858e-07
3.56357e-08
-5.99666e-07
3.56159e-08
-6.08456e-07
3.55991e-08
-6.17228e-07
3.5583e-08
-6.25981e-07
3.55651e-08
-6.34714e-07
3.55429e-08
-6.43423e-07
3.55133e-08
-6.52108e-07
3.5473e-08
-6.60762e-07
3.54187e-08
-6.69382e-07
3.53464e-08
-6.77962e-07
3.52521e-08
-6.86495e-07
3.51314e-08
-6.94972e-07
3.49795e-08
-7.03385e-07
3.47914e-08
-7.11723e-07
3.4562e-08
-7.19973e-07
3.42855e-08
-7.28123e-07
3.39561e-08
-7.36158e-07
3.35676e-08
-7.44061e-07
3.31138e-08
-7.51815e-07
3.25878e-08
-7.594e-07
3.19829e-08
-7.66794e-07
3.1292e-08
-7.73976e-07
3.0508e-08
-7.8092e-07
2.96235e-08
-7.876e-07
2.86311e-08
-7.93988e-07
2.75235e-08
-8.00055e-07
2.62932e-08
-8.05769e-07
2.49329e-08
-8.11098e-07
2.34357e-08
-8.16006e-07
2.17945e-08
-8.20459e-07
2.00028e-08
-8.24419e-07
1.80545e-08
-8.27847e-07
1.59439e-08
-8.30705e-07
1.3666e-08
-8.32952e-07
1.12164e-08
-8.34546e-07
8.59159e-09
-8.35447e-07
5.78903e-09
-8.35614e-07
2.80717e-09
-8.35003e-07
-3.54322e-10
-8.33575e-07
-3.6945e-09
-8.31289e-07
-7.21098e-09
-8.28106e-07
-1.08998e-08
-8.23987e-07
-1.47555e-08
-8.18898e-07
-1.87705e-08
-8.12804e-07
-2.29358e-08
-8.05674e-07
-2.724e-08
-7.97482e-07
-3.167e-08
-7.88202e-07
-3.62103e-08
-7.77815e-07
-4.08435e-08
-7.66307e-07
-4.55499e-08
-7.53667e-07
-5.03076e-08
-7.39891e-07
-5.50927e-08
-7.2498e-07
-5.98789e-08
-7.08942e-07
-6.46383e-08
-6.91794e-07
-6.93409e-08
-6.73557e-07
-7.39548e-08
-6.54261e-07
-7.8447e-08
-6.33945e-07
-8.27828e-08
-6.12654e-07
-8.69267e-08
-5.90443e-07
-9.08422e-08
-5.67375e-07
-9.44925e-08
-5.4352e-07
-9.78409e-08
-5.18959e-07
-1.00851e-07
-4.93778e-07
-1.03486e-07
-4.68074e-07
-1.05712e-07
-4.41949e-07
-1.07496e-07
-4.15513e-07
-1.08807e-07
-3.88883e-07
-1.09615e-07
-3.62182e-07
-1.09896e-07
-3.35535e-07
-1.09627e-07
-3.09076e-07
-1.08789e-07
-2.82939e-07
-1.07368e-07
-2.57259e-07
-1.05354e-07
-2.32176e-07
-1.02742e-07
-2.07825e-07
-9.95333e-08
-1.84342e-07
-9.57334e-08
-1.61859e-07
-9.13552e-08
-1.40502e-07
-8.6418e-08
-1.20391e-07
-8.09487e-08
-1.01638e-07
-7.49827e-08
-8.43424e-08
-6.85647e-08
-6.85908e-08
-6.17507e-08
-5.44542e-08
-5.46101e-08
-4.19848e-08
-4.72286e-08
-3.12129e-08
-3.97119e-08
-2.2144e-08
-3.21917e-08
-1.47558e-08
-2.48317e-08
-8.99487e-09
-1.78373e-08
-4.77508e-09
-1.14665e-08
-1.97621e-09
-6.04212e-09
-4.4505e-10
-1.96741e-09
2.17777e-10
-1.98478e-10
-2.67466e-10
-8.91634e-10
5.4863e-10
-2.16106e-09
2.35133e-09
-4.07046e-09
4.86086e-09
-6.66578e-09
7.86598e-09
-9.97633e-09
1.11941e-08
-1.40165e-08
1.47052e-08
-1.87872e-08
1.82876e-08
-2.42784e-08
2.18536e-08
-3.04702e-08
2.53352e-08
-3.7335e-08
2.86812e-08
-4.48393e-08
3.1854e-08
-5.29446e-08
3.48272e-08
-6.16097e-08
3.75837e-08
-7.0791e-08
4.01137e-08
-8.04439e-08
4.24135e-08
-9.05236e-08
4.44842e-08
-1.00986e-07
4.63304e-08
-1.11788e-07
4.79598e-08
-1.22888e-07
4.93821e-08
-1.34246e-07
5.06084e-08
-1.45825e-07
5.16512e-08
-1.5759e-07
5.25232e-08
-1.69507e-07
5.32377e-08
-1.81546e-07
5.38077e-08
-1.9368e-07
5.42464e-08
-2.05883e-07
5.45663e-08
-2.18132e-07
5.47795e-08
-2.30407e-07
5.48975e-08
-2.42688e-07
5.49312e-08
-2.54959e-07
5.48909e-08
-2.67206e-07
5.47858e-08
-2.79415e-07
5.46248e-08
-2.91577e-07
5.44159e-08
-3.03681e-07
5.41664e-08
-3.15719e-07
5.3883e-08
-3.27684e-07
5.35717e-08
-3.39572e-07
5.3238e-08
-3.51377e-07
5.28868e-08
-3.63095e-07
5.25225e-08
-3.74726e-07
5.21492e-08
-3.86265e-07
5.17702e-08
-3.97713e-07
5.13889e-08
-4.09069e-07
5.10079e-08
-4.20333e-07
5.06298e-08
-4.31506e-07
5.02568e-08
-4.42589e-07
4.9891e-08
-4.53584e-07
4.9534e-08
-4.64492e-07
4.91874e-08
-4.75315e-07
4.88526e-08
-4.86057e-07
4.85309e-08
-4.9672e-07
4.82231e-08
-5.07307e-07
4.79303e-08
-5.1782e-07