/*--------------------------------*- C++ -*----------------------------------*\
  =========                 |
  \\      /  F ield         | OpenFOAM: The Open Source CFD Toolbox
   \\    /   O peration     | Website:  https://openfoam.org
    \\  /    A nd           | Version:  7
     \\/     M anipulation  |
\*---------------------------------------------------------------------------*/
FoamFile
{
    version     2.0;
    format      ascii;
    class       volScalarField;
    location    "0.15";
    object      p;
}
// * * * * * * * * * * * * * * * * * * * * * * * * * * * * * * * * * * * * * //

dimensions      [0 2 -2 0 0 0 0];

internalField   nonuniform List<scalar> 
51200
(
4.76234e-08
-1.25399e-05
-2.15918e-05
-5.69752e-05
-0.000109145
-0.000166448
-0.000224019
-0.000279407
-0.000331297
-0.00037878
-0.000421684
-0.000460013
-0.000494161
-0.000524201
-0.000550475
-0.000573328
-0.000593524
-0.000611592
-0.000627738
-0.000642383
-0.000655723
-0.000668156
-0.000679991
-0.0006913
-0.000702311
-0.000713201
-0.000724084
-0.000735188
-0.000746539
-0.00075817
-0.00077023
-0.000782689
-0.000795633
-0.000809152
-0.000823179
-0.00083776
-0.000852964
-0.000868776
-0.00088522
-0.000902308
-0.000919982
-0.000938204
-0.000957065
-0.000976568
-0.000996697
-0.00101746
-0.00103889
-0.00106091
-0.00108355
-0.00110686
-0.00113077
-0.00115521
-0.00118023
-0.00120579
-0.00123185
-0.00125838
-0.00128539
-0.00131282
-0.00134064
-0.00136892
-0.00139768
-0.00142683
-0.00145632
-0.00148613
-0.00151627
-0.0015467
-0.00157743
-0.00160844
-0.00163967
-0.00167102
-0.00170255
-0.00173439
-0.00176656
-0.00179898
-0.00183154
-0.00186413
-0.00189664
-0.00192909
-0.0019616
-0.00199424
-0.00202695
-0.00205961
-0.00209209
-0.00212436
-0.00215646
-0.00218843
-0.00222028
-0.00225198
-0.00228351
-0.00231482
-0.00234589
-0.00237674
-0.00240732
-0.00243762
-0.00246755
-0.00249712
-0.00252633
-0.00255516
-0.00258357
-0.00261153
-0.00263901
-0.00266602
-0.00269254
-0.00271855
-0.00274403
-0.002769
-0.00279343
-0.00281729
-0.00284054
-0.00286317
-0.00288514
-0.00290639
-0.00292684
-0.00294649
-0.00296536
-0.00298347
-0.00300079
-0.00301731
-0.003033
-0.00304788
-0.00306192
-0.00307508
-0.00308731
-0.00309861
-0.00310898
-0.00311838
-0.00312682
-0.00313431
-0.00314088
-0.00314656
-0.00315129
-0.00315505
-0.00315783
-0.00315966
-0.00316056
-0.00316049
-0.00315944
-0.00315742
-0.00315449
-0.00315069
-0.00314606
-0.0031406
-0.00313435
-0.0031274
-0.00311979
-0.00311158
-0.00310285
-0.00309371
-0.00308431
-0.0030748
-0.00306531
-0.00305593
-0.00304683
-0.00303823
-0.00303039
-0.00302362
-0.00301823
-0.00301449
-0.00301257
-0.00301181
8.03512e-06
-4.65969e-05
-8.36374e-05
-0.000128351
-0.000178517
-0.000228358
-0.000276845
-0.000323366
-0.000367318
-0.000408185
-0.000445437
-0.000479224
-0.00050988
-0.000537497
-0.000561955
-0.000583795
-0.00060328
-0.000620858
-0.000636913
-0.000651576
-0.000665135
-0.00067786
-0.000689953
-0.000701679
-0.000713122
-0.000724414
-0.000735755
-0.000747195
-0.000758861
-0.000770882
-0.000783206
-0.000795929
-0.000809153
-0.000822834
-0.000837025
-0.0008518
-0.000867081
-0.000882887
-0.000899335
-0.00091636
-0.000933936
-0.000952133
-0.000970893
-0.00099022
-0.00101019
-0.00103077
-0.00105191
-0.00107366
-0.00109604
-0.001119
-0.00114258
-0.00116674
-0.00119142
-0.00121662
-0.00124232
-0.00126852
-0.0012952
-0.00132232
-0.00134983
-0.00137775
-0.0014061
-0.00143481
-0.00146386
-0.00149323
-0.00152288
-0.00155278
-0.00158299
-0.00161356
-0.0016444
-0.00167545
-0.00170668
-0.00173807
-0.00176962
-0.00180136
-0.00183332
-0.00186542
-0.00189756
-0.00192965
-0.00196173
-0.00199381
-0.00202592
-0.00205801
-0.00209
-0.00212181
-0.00215342
-0.00218486
-0.00221618
-0.00224737
-0.00227842
-0.00230924
-0.00233982
-0.00237016
-0.00240024
-0.00243001
-0.00245944
-0.00248852
-0.00251725
-0.00254561
-0.00257355
-0.00260104
-0.00262807
-0.00265463
-0.00268069
-0.00270625
-0.0027313
-0.00275585
-0.00277988
-0.00280333
-0.00282619
-0.00284846
-0.00287007
-0.00289094
-0.00291104
-0.00293035
-0.00294891
-0.00296673
-0.00298376
-0.003
-0.00301546
-0.00303014
-0.00304399
-0.00305697
-0.00306905
-0.00308024
-0.0030905
-0.00309983
-0.00310822
-0.00311569
-0.0031223
-0.00312805
-0.00313287
-0.00313675
-0.00313972
-0.00314177
-0.00314293
-0.00314317
-0.00314247
-0.00314085
-0.0031384
-0.00313514
-0.00313106
-0.00312621
-0.00312065
-0.00311443
-0.0031076
-0.00310022
-0.00309237
-0.00308416
-0.00307574
-0.00306729
-0.00305887
-0.00305057
-0.00304252
-0.00303496
-0.00302809
-0.00302212
-0.00301729
-0.00301378
-0.00301176
-0.00301101
-2.04077e-05
-9.22776e-05
-0.000141644
-0.000189675
-0.000236999
-0.000281331
-0.0003233
-0.000363259
-0.000401026
-0.000436365
-0.000468968
-0.00049886
-0.000526163
-0.000551215
-0.00057401
-0.000594546
-0.000613141
-0.000630097
-0.000645724
-0.000660201
-0.000673797
-0.000686555
-0.000698844
-0.000710753
-0.00072241
-0.000734035
-0.000745645
-0.000757331
-0.000769272
-0.00078149
-0.000794033
-0.000807022
-0.000820394
-0.000834217
-0.000848581
-0.000863441
-0.000878778
-0.000894671
-0.000911087
-0.000928049
-0.000945603
-0.000963742
-0.000982394
-0.00100164
-0.00102148
-0.00104187
-0.00106284
-0.00108443
-0.00110657
-0.00112929
-0.00115262
-0.00117653
-0.00120094
-0.00122587
-0.00125125
-0.00127712
-0.0013035
-0.00133033
-0.00135756
-0.00138521
-0.00141324
-0.0014416
-0.00147031
-0.00149934
-0.00152862
-0.00155811
-0.0015879
-0.00161801
-0.00164841
-0.00167912
-0.00171009
-0.00174119
-0.00177234
-0.0018036
-0.00183502
-0.00186662
-0.00189836
-0.00193013
-0.00196188
-0.00199355
-0.00202516
-0.00205675
-0.00208829
-0.0021197
-0.00215093
-0.00218195
-0.00221283
-0.00224357
-0.00227416
-0.00230456
-0.00233473
-0.00236466
-0.00239432
-0.00242365
-0.00245264
-0.00248131
-0.00250964
-0.00253759
-0.00256513
-0.00259223
-0.00261888
-0.00264506
-0.00267072
-0.00269589
-0.00272059
-0.0027448
-0.00276847
-0.00279159
-0.00281414
-0.0028361
-0.00285741
-0.00287796
-0.00289773
-0.00291678
-0.00293509
-0.00295264
-0.00296944
-0.00298546
-0.00300072
-0.00301523
-0.00302893
-0.00304175
-0.00305372
-0.00306482
-0.003075
-0.00308425
-0.0030926
-0.00310009
-0.00310674
-0.00311254
-0.00311743
-0.00312141
-0.00312452
-0.00312679
-0.00312816
-0.00312864
-0.00312822
-0.00312696
-0.00312489
-0.00312205
-0.00311844
-0.00311409
-0.00310907
-0.00310344
-0.00309723
-0.00309049
-0.00308331
-0.00307583
-0.0030682
-0.00306053
-0.00305289
-0.00304535
-0.00303806
-0.0030312
-0.00302496
-0.0030195
-0.00301502
-0.00301167
-0.00300966
-0.00300903
-9.34419e-05
-0.000162594
-0.000211458
-0.000255244
-0.000296655
-0.000334739
-0.000370545
-0.000404388
-0.00043652
-0.000466872
-0.000495157
-0.000521192
-0.000545305
-0.000567547
-0.000588203
-0.000607149
-0.000624579
-0.000640666
-0.00065558
-0.000669648
-0.000682928
-0.000695618
-0.000707852
-0.000719742
-0.000731492
-0.000743195
-0.000754915
-0.000766805
-0.000778876
-0.000791181
-0.000803895
-0.000816979
-0.000830441
-0.000844412
-0.00085882
-0.000873709
-0.000889143
-0.000905044
-0.000921426
-0.000938384
-0.0009559
-0.000973925
-0.000992531
-0.00101169
-0.00103137
-0.00105164
-0.00107248
-0.0010939
-0.00111588
-0.00113845
-0.00116155
-0.00118522
-0.00120945
-0.00123414
-0.00125927
-0.00128489
-0.00131098
-0.0013375
-0.00136447
-0.00139186
-0.00141959
-0.00144765
-0.00147608
-0.00150479
-0.00153376
-0.001563
-0.00159251
-0.00162224
-0.00165222
-0.00168251
-0.00171311
-0.00174389
-0.00177478
-0.00180576
-0.00183681
-0.00186795
-0.00189922
-0.00193061
-0.00196204
-0.00199341
-0.00202467
-0.00205584
-0.00208694
-0.00211794
-0.00214879
-0.00217947
-0.00220999
-0.00224036
-0.00227054
-0.00230053
-0.00233032
-0.00235988
-0.00238916
-0.00241811
-0.00244674
-0.00247505
-0.00250302
-0.00253059
-0.00255777
-0.00258453
-0.00261083
-0.00263666
-0.00266199
-0.00268684
-0.00271123
-0.00273512
-0.00275848
-0.0027813
-0.00280359
-0.00282528
-0.0028463
-0.00286656
-0.00288608
-0.00290488
-0.00292296
-0.00294029
-0.00295686
-0.00297271
-0.00298782
-0.00300216
-0.0030157
-0.00302841
-0.00304029
-0.0030513
-0.00306142
-0.00307062
-0.00307894
-0.00308644
-0.00309313
-0.00309897
-0.00310391
-0.00310798
-0.00311123
-0.00311365
-0.00311521
-0.0031159
-0.00311573
-0.00311476
-0.00311303
-0.00311055
-0.00310731
-0.00310338
-0.00309884
-0.00309369
-0.00308797
-0.00308174
-0.00307511
-0.00306821
-0.00306117
-0.0030541
-0.00304703
-0.00304002
-0.00303324
-0.00302686
-0.003021
-0.00301582
-0.0030115
-0.00300818
-0.00300606
-0.00300523
-0.000188305
-0.000244819
-0.000286652
-0.000323333
-0.000357647
-0.000389128
-0.000418627
-0.000446806
-0.000473715
-0.000499219
-0.000523376
-0.000545998
-0.000566974
-0.000586596
-0.000604934
-0.000622114
-0.000638136
-0.000653229
-0.000667351
-0.00068074
-0.000693526
-0.000705927
-0.000717942
-0.000729749
-0.000741432
-0.000753049
-0.000764821
-0.000776752
-0.000788835
-0.000801237
-0.000813993
-0.000827071
-0.000840632
-0.00085463
-0.000869038
-0.000883966
-0.000899414
-0.000915273
-0.000931667
-0.000948608
-0.000966021
-0.00098398
-0.00100252
-0.00102155
-0.00104112
-0.00106125
-0.00108192
-0.00110317
-0.00112501
-0.00114739
-0.00117029
-0.00119375
-0.00121773
-0.00124218
-0.00126712
-0.00129253
-0.00131835
-0.00134461
-0.00137132
-0.00139843
-0.00142589
-0.0014537
-0.00148182
-0.00151019
-0.00153884
-0.0015678
-0.00159702
-0.00162647
-0.00165616
-0.0016861
-0.00171627
-0.00174664
-0.0017772
-0.00180789
-0.00183866
-0.00186947
-0.00190034
-0.00193129
-0.00196232
-0.00199333
-0.00202429
-0.00205513
-0.00208585
-0.00211643
-0.00214688
-0.0021772
-0.00220738
-0.00223739
-0.0022672
-0.00229681
-0.00232623
-0.00235541
-0.00238431
-0.00241289
-0.00244117
-0.00246914
-0.00249676
-0.00252398
-0.00255082
-0.00257724
-0.00260321
-0.00262869
-0.0026537
-0.00267826
-0.00270235
-0.00272593
-0.002749
-0.00277155
-0.00279357
-0.002815
-0.00283572
-0.00285571
-0.00287499
-0.00289357
-0.00291142
-0.00292852
-0.00294491
-0.00296058
-0.00297553
-0.00298973
-0.00300312
-0.00301572
-0.00302752
-0.00303846
-0.00304849
-0.00305765
-0.00306597
-0.00307348
-0.00308019
-0.00308605
-0.00309104
-0.00309521
-0.00309859
-0.00310115
-0.00310287
-0.00310375
-0.00310384
-0.00310316
-0.00310172
-0.00309956
-0.00309668
-0.00309314
-0.00308902
-0.00308431
-0.00307902
-0.00307323
-0.00306707
-0.00306068
-0.00305415
-0.00304755
-0.00304093
-0.00303436
-0.00302797
-0.00302191
-0.00301628
-0.00301123
-0.00300693
-0.00300352
-0.00300111
-0.00299975
-0.000285366
-0.000326253
-0.00035888
-0.000388015
-0.000415479
-0.000440715
-0.000464594
-0.000487537
-0.000509671
-0.000531038
-0.000551448
-0.000570884
-0.000589161
-0.000606401
-0.000622753
-0.000638147
-0.000652796
-0.000666763
-0.000680086
-0.000692762
-0.00070504
-0.000716945
-0.000728652
-0.000740272
-0.00075176
-0.000763293
-0.000774988
-0.000786832
-0.000798955
-0.000811359
-0.000824067
-0.000837187
-0.000850734
-0.000864686
-0.000879126
-0.000894056
-0.000909426
-0.000925294
-0.000941667
-0.000958519
-0.000975884
-0.000993782
-0.00101219
-0.00103112
-0.0010506
-0.00107059
-0.0010911
-0.0011122
-0.00113387
-0.00115606
-0.00117879
-0.00120205
-0.00122579
-0.00125002
-0.00127474
-0.00129991
-0.00132551
-0.00135156
-0.00137801
-0.00140483
-0.00143205
-0.00145962
-0.00148746
-0.00151555
-0.00154391
-0.00157254
-0.00160142
-0.00163057
-0.00166001
-0.00168968
-0.00171951
-0.00174951
-0.00177968
-0.00181001
-0.00184045
-0.00187098
-0.00190156
-0.00193216
-0.00196277
-0.00199339
-0.002024
-0.00205452
-0.0020849
-0.00211512
-0.00214521
-0.00217517
-0.002205
-0.00223464
-0.00226409
-0.00229336
-0.00232243
-0.00235124
-0.00237977
-0.002408
-0.00243595
-0.00246358
-0.00249085
-0.00251775
-0.00254427
-0.00257036
-0.00259599
-0.00262116
-0.00264587
-0.00267015
-0.00269395
-0.00271724
-0.00274003
-0.00276234
-0.0027841
-0.00280525
-0.0028257
-0.00284545
-0.0028645
-0.00288286
-0.00290049
-0.00291738
-0.00293359
-0.00294911
-0.0029639
-0.00297795
-0.00299123
-0.00300373
-0.00301544
-0.0030263
-0.00303626
-0.00304537
-0.00305371
-0.00306124
-0.00306795
-0.00307382
-0.00307887
-0.00308314
-0.00308663
-0.00308932
-0.00309119
-0.00309226
-0.00309258
-0.00309216
-0.003091
-0.00308911
-0.00308656
-0.00308339
-0.00307963
-0.00307528
-0.00307035
-0.00306496
-0.00305923
-0.00305326
-0.00304713
-0.00304092
-0.00303465
-0.00302841
-0.00302231
-0.00301645
-0.00301093
-0.00300586
-0.00300146
-0.00299783
-0.00299497
-0.00299286
-0.000376736
-0.000403076
-0.000426511
-0.000448363
-0.000469574
-0.000489198
-0.000507992
-0.000526305
-0.000544315
-0.000561872
-0.000578927
-0.000595465
-0.000611298
-0.000626444
-0.000640966
-0.000654758
-0.000668062
-0.000680891
-0.000693332
-0.000705371
-0.000717026
-0.000728458
-0.000739796
-0.000751049
-0.000762355
-0.000773747
-0.000785251
-0.000797034
-0.000809091
-0.000821406
-0.000834089
-0.00084721
-0.000860662
-0.000874597
-0.000889029
-0.000903872
-0.000919217
-0.000935068
-0.000951347
-0.000968133
-0.000985448
-0.00100324
-0.00102153
-0.00104038
-0.00105971
-0.00107958
-0.00109998
-0.00112091
-0.00114239
-0.00116443
-0.00118699
-0.00121004
-0.00123358
-0.00125763
-0.00128211
-0.00130705
-0.00133246
-0.00135828
-0.00138448
-0.00141107
-0.00143803
-0.00146532
-0.00149289
-0.00152076
-0.00154888
-0.00157723
-0.00160579
-0.00163463
-0.00166375
-0.00169311
-0.00172267
-0.00175239
-0.00178225
-0.00181222
-0.0018423
-0.0018725
-0.00190279
-0.00193309
-0.00196338
-0.00199364
-0.00202388
-0.00205404
-0.00208408
-0.00211398
-0.00214375
-0.00217339
-0.00220285
-0.00223214
-0.00226126
-0.0022902
-0.00231892
-0.00234738
-0.00237557
-0.00240349
-0.00243111
-0.00245841
-0.00248536
-0.00251194
-0.00253816
-0.00256393
-0.00258924
-0.00261412
-0.00263857
-0.00266256
-0.00268608
-0.0027091
-0.00273165
-0.00275372
-0.00277524
-0.00279611
-0.00281631
-0.00283584
-0.00285468
-0.00287282
-0.00289024
-0.00290696
-0.00292301
-0.00293838
-0.00295302
-0.00296693
-0.00298011
-0.00299254
-0.00300415
-0.00301491
-0.00302481
-0.00303392
-0.00304224
-0.00304978
-0.00305649
-0.00306239
-0.00306749
-0.00307185
-0.00307545
-0.00307826
-0.00308027
-0.00308153
-0.00308206
-0.00308185
-0.00308092
-0.00307931
-0.00307705
-0.00307419
-0.00307074
-0.00306669
-0.00306207
-0.003057
-0.00305163
-0.00304601
-0.0030402
-0.00303427
-0.00302828
-0.00302228
-0.00301637
-0.0030106
-0.00300506
-0.00299989
-0.00299527
-0.00299129
-0.00298786
-0.00298485
-0.000459606
-0.00047381
-0.000488775
-0.000504115
-0.000519526
-0.000534241
-0.000548635
-0.000562984
-0.000577224
-0.000591454
-0.000605667
-0.000619476
-0.000632994
-0.000646271
-0.000659085
-0.000671544
-0.000683546
-0.00069529
-0.000706873
-0.000718183
-0.000729281
-0.000740266
-0.000751149
-0.000762072
-0.000773103
-0.000784236
-0.000795581
-0.000807246
-0.000819141
-0.000831373
-0.000844018
-0.000857014
-0.000870435
-0.000884329
-0.000898656
-0.000913453
-0.000928761
-0.000944522
-0.000960739
-0.00097747
-0.000994684
-0.00101237
-0.00103058
-0.00104929
-0.0010685
-0.00108825
-0.00110852
-0.0011293
-0.00115064
-0.0011725
-0.00119487
-0.00121774
-0.00124111
-0.00126495
-0.00128924
-0.00131398
-0.00133918
-0.00136478
-0.00139076
-0.00141714
-0.00144386
-0.00147087
-0.00149818
-0.0015258
-0.00155367
-0.00158176
-0.00161009
-0.00163866
-0.00166747
-0.0016965
-0.00172576
-0.00175521
-0.00178479
-0.00181447
-0.00184425
-0.00187413
-0.00190408
-0.00193407
-0.00196406
-0.00199403
-0.00202393
-0.00205374
-0.00208343
-0.00211302
-0.00214248
-0.0021718
-0.00220093
-0.0022299
-0.00225871
-0.00228732
-0.0023157
-0.00234383
-0.00237171
-0.00239933
-0.00242664
-0.00245362
-0.00248028
-0.00250657
-0.00253247
-0.00255794
-0.00258296
-0.00260757
-0.00263177
-0.00265549
-0.00267873
-0.00270151
-0.00272385
-0.00274568
-0.00276695
-0.00278758
-0.00280755
-0.00282687
-0.00284551
-0.00286345
-0.00288068
-0.00289726
-0.00291317
-0.00292837
-0.00294287
-0.00295668
-0.00296976
-0.0029821
-0.00299362
-0.00300429
-0.00301415
-0.00302324
-0.00303157
-0.00303909
-0.0030458
-0.00305174
-0.00305691
-0.00306135
-0.00306504
-0.00306796
-0.00307011
-0.00307155
-0.00307226
-0.00307224
-0.00307151
-0.00307013
-0.00306814
-0.00306555
-0.00306234
-0.00305853
-0.00305416
-0.00304939
-0.0030443
-0.00303894
-0.00303338
-0.00302768
-0.00302189
-0.00301605
-0.00301022
-0.00300445
-0.00299882
-0.00299345
-0.00298853
-0.00298412
-0.00298001
-0.00297601
-0.000533166
-0.000538031
-0.000545935
-0.000555297
-0.000565648
-0.000576032
-0.00058653
-0.000597286
-0.00060837
-0.000619653
-0.00063116
-0.000642737
-0.000654207
-0.000665591
-0.000676979
-0.000688114
-0.000699027
-0.000709797
-0.000720431
-0.000731043
-0.000741564
-0.000752019
-0.000762497
-0.000773095
-0.000783788
-0.000794677
-0.000805865
-0.000817292
-0.000829073
-0.000841205
-0.000853686
-0.0008666
-0.000879977
-0.000893761
-0.000908018
-0.000922768
-0.000937973
-0.00095365
-0.00096982
-0.000986444
-0.00100357
-0.00102118
-0.00103927
-0.00105786
-0.00107698
-0.0010966
-0.00111671
-0.00113737
-0.00115856
-0.00118026
-0.00120246
-0.00122517
-0.00124836
-0.00127201
-0.00129612
-0.00132069
-0.00134566
-0.00137104
-0.00139682
-0.00142298
-0.00144947
-0.00147626
-0.00150335
-0.00153071
-0.0015583
-0.00158614
-0.00161425
-0.00164258
-0.00167111
-0.00169986
-0.00172882
-0.00175797
-0.00178727
-0.0018167
-0.00184623
-0.00187582
-0.00190545
-0.00193512
-0.00196481
-0.00199448
-0.00202407
-0.00205356
-0.00208294
-0.00211223
-0.00214139
-0.00217038
-0.00219921
-0.00222788
-0.00225639
-0.00228468
-0.00231274
-0.00234058
-0.00236817
-0.00239548
-0.0024225
-0.0024492
-0.00247557
-0.00250158
-0.00252718
-0.00255236
-0.00257713
-0.00260149
-0.00262542
-0.00264888
-0.00267188
-0.00269445
-0.00271657
-0.00273818
-0.0027592
-0.0027796
-0.00279939
-0.00281851
-0.00283695
-0.00285471
-0.0028718
-0.00288823
-0.002904
-0.00291907
-0.00293344
-0.00294715
-0.00296016
-0.00297238
-0.0029838
-0.00299441
-0.00300424
-0.00301333
-0.00302164
-0.00302915
-0.00303587
-0.00304185
-0.0030471
-0.00305161
-0.00305538
-0.0030584
-0.0030607
-0.00306229
-0.00306316
-0.0030633
-0.00306276
-0.0030616
-0.00305982
-0.00305744
-0.00305442
-0.00305081
-0.00304666
-0.00304211
-0.00303725
-0.00303209
-0.00302671
-0.00302117
-0.00301551
-0.00300977
-0.00300395
-0.0029981
-0.0029923
-0.00298669
-0.00298141
-0.00297649
-0.00297163
-0.00296659
-0.000597868
-0.000595543
-0.000597909
-0.000602521
-0.00060833
-0.000614697
-0.000621874
-0.00062956
-0.000637755
-0.000646498
-0.000655674
-0.000665131
-0.000674744
-0.00068455
-0.000694443
-0.000704335
-0.00071425
-0.000724061
-0.00073389
-0.000743793
-0.000753667
-0.000763595
-0.000773699
-0.000783896
-0.000794286
-0.000804954
-0.000815876
-0.000827144
-0.000838792
-0.000850756
-0.000863106
-0.00087593
-0.000889183
-0.000902867
-0.00091707
-0.000931729
-0.000946837
-0.000962448
-0.000978519
-0.000995052
-0.00101209
-0.00102961
-0.00104759
-0.00106608
-0.00108508
-0.00110458
-0.00112458
-0.0011451
-0.00116613
-0.00118768
-0.00120973
-0.00123228
-0.00125529
-0.00127878
-0.00130274
-0.00132713
-0.00135191
-0.00137709
-0.00140267
-0.00142859
-0.00145484
-0.00148143
-0.00150833
-0.00153546
-0.00156281
-0.00159042
-0.00161827
-0.00164634
-0.00167463
-0.00170314
-0.00173184
-0.00176071
-0.00178973
-0.0018189
-0.00184818
-0.00187751
-0.00190687
-0.00193625
-0.00196565
-0.00199501
-0.00202429
-0.00205348
-0.00208259
-0.00211159
-0.00214044
-0.00216913
-0.00219768
-0.00222606
-0.00225427
-0.00228226
-0.00231004
-0.0023376
-0.00236491
-0.00239194
-0.00241867
-0.00244511
-0.00247122
-0.00249695
-0.00252227
-0.00254719
-0.00257172
-0.00259584
-0.00261951
-0.00264272
-0.00266551
-0.00268788
-0.00270979
-0.00273117
-0.00275197
-0.00277218
-0.00279178
-0.00281073
-0.00282899
-0.00284659
-0.00286356
-0.00287986
-0.00289548
-0.00291042
-0.0029247
-0.00293832
-0.00295123
-0.00296335
-0.00297468
-0.00298524
-0.00299506
-0.00300414
-0.00301244
-0.00301993
-0.00302668
-0.00303271
-0.00303802
-0.0030426
-0.00304646
-0.00304959
-0.00305202
-0.00305374
-0.00305473
-0.00305502
-0.00305464
-0.00305367
-0.00305208
-0.00304985
-0.00304698
-0.00304352
-0.00303956
-0.00303521
-0.00303051
-0.00302549
-0.00302022
-0.00301478
-0.0030092
-0.00300347
-0.0029976
-0.00299163
-0.00298563
-0.00297973
-0.00297402
-0.00296855
-0.0029629
-0.00295681
-0.000654438
-0.000646979
-0.000644919
-0.000645591
-0.000647796
-0.000650802
-0.000654798
-0.000659825
-0.000665512
-0.000671961
-0.000679109
-0.000686657
-0.000694605
-0.000702871
-0.000711387
-0.00072015
-0.000729041
-0.000737961
-0.000747069
-0.000756245
-0.000765539
-0.000774994
-0.000784581
-0.000794425
-0.000804536
-0.000814895
-0.000825592
-0.000836693
-0.00084814
-0.000859978
-0.000872226
-0.000884895
-0.000898024
-0.00091164
-0.000925726
-0.000940299
-0.000955338
-0.000970844
-0.000986822
-0.00100328
-0.00102021
-0.00103763
-0.00105552
-0.00107391
-0.00109279
-0.00111217
-0.00113207
-0.00115247
-0.00117336
-0.00119477
-0.00121668
-0.00123907
-0.00126194
-0.00128528
-0.00130907
-0.00133327
-0.00135789
-0.00138291
-0.00140829
-0.00143399
-0.00146003
-0.00148642
-0.00151309
-0.00154
-0.00156717
-0.00159456
-0.00162217
-0.00164998
-0.00167803
-0.00170631
-0.00173477
-0.0017634
-0.00179218
-0.0018211
-0.00185012
-0.00187919
-0.00190831
-0.00193744
-0.00196655
-0.00199561
-0.0020246
-0.00205352
-0.00208236
-0.00211107
-0.00213964
-0.00216805
-0.00219633
-0.00222444
-0.00225236
-0.00228007
-0.00230758
-0.00233488
-0.00236193
-0.0023887
-0.00241518
-0.00244138
-0.00246723
-0.00249268
-0.00251774
-0.00254243
-0.00256673
-0.00259061
-0.00261403
-0.00263702
-0.00265962
-0.0026818
-0.0027035
-0.00272466
-0.00274527
-0.00276531
-0.00278474
-0.0028035
-0.00282162
-0.0028391
-0.00285593
-0.0028721
-0.00288759
-0.00290242
-0.00291662
-0.00293016
-0.00294296
-0.00295498
-0.00296624
-0.00297677
-0.00298658
-0.00299564
-0.00300393
-0.00301144
-0.00301822
-0.0030243
-0.00302967
-0.00303431
-0.00303825
-0.0030415
-0.00304404
-0.00304586
-0.00304697
-0.00304738
-0.00304717
-0.00304636
-0.00304491
-0.00304279
-0.00304003
-0.00303671
-0.0030329
-0.00302869
-0.0030241
-0.00301918
-0.00301398
-0.00300858
-0.003003
-0.00299722
-0.00299125
-0.00298512
-0.0029789
-0.00297266
-0.0029665
-0.00296043
-0.00295399
-0.00294685
-0.000704077
-0.000692731
-0.000687185
-0.000684804
-0.000683989
-0.000684187
-0.000685518
-0.000688007
-0.00069157
-0.000695962
-0.000701227
-0.000707138
-0.00071358
-0.000720465
-0.00072779
-0.000735431
-0.000743314
-0.000751474
-0.000759773
-0.000768318
-0.000777068
-0.000785965
-0.000795139
-0.000804631
-0.000814392
-0.000824477
-0.000834966
-0.00084584
-0.000857096
-0.000868803
-0.000880911
-0.000893453
-0.000906486
-0.000919982
-0.000933956
-0.000948446
-0.000963399
-0.000978803
-0.000994697
-0.00101106
-0.0010279
-0.00104524
-0.00106305
-0.00108132
-0.00110011
-0.00111939
-0.00113916
-0.00115943
-0.00118022
-0.00120149
-0.00122327
-0.00124553
-0.00126827
-0.00129148
-0.0013151
-0.00133914
-0.00136359
-0.00138843
-0.00141362
-0.00143914
-0.00146501
-0.0014912
-0.00151765
-0.00154436
-0.00157134
-0.00159853
-0.00162591
-0.00165351
-0.00168134
-0.00170937
-0.00173759
-0.00176601
-0.00179459
-0.00182327
-0.00185204
-0.00188087
-0.00190975
-0.00193864
-0.00196748
-0.00199626
-0.00202498
-0.00205365
-0.00208222
-0.00211067
-0.00213897
-0.00216713
-0.00219515
-0.00222299
-0.00225064
-0.0022781
-0.00230537
-0.00233241
-0.0023592
-0.00238574
-0.002412
-0.00243796
-0.00246356
-0.00248877
-0.0025136
-0.00253807
-0.00256214
-0.00258578
-0.00260898
-0.00263178
-0.0026542
-0.00267617
-0.00269767
-0.00271864
-0.00273908
-0.00275897
-0.00277823
-0.00279684
-0.00281483
-0.0028322
-0.00284891
-0.00286494
-0.00288032
-0.00289506
-0.00290918
-0.00292262
-0.00293532
-0.00294726
-0.00295847
-0.00296899
-0.00297879
-0.00298784
-0.00299611
-0.00300364
-0.00301047
-0.0030166
-0.00302201
-0.00302672
-0.00303075
-0.0030341
-0.00303673
-0.00303864
-0.00303985
-0.00304039
-0.00304032
-0.00303963
-0.00303828
-0.00303625
-0.0030336
-0.00303039
-0.0030267
-0.00302258
-0.00301806
-0.00301318
-0.00300802
-0.00300262
-0.00299697
-0.00299108
-0.00298496
-0.00297866
-0.00297218
-0.00296559
-0.00295894
-0.00295226
-0.00294504
-0.0029369
-0.000747811
-0.000733633
-0.00072534
-0.000720353
-0.000717073
-0.000714975
-0.000714056
-0.000714362
-0.000715898
-0.000718514
-0.000722142
-0.000726559
-0.000731602
-0.000737291
-0.000743442
-0.000750047
-0.000757078
-0.000764377
-0.000771977
-0.000779908
-0.000788088
-0.000796511
-0.00080527
-0.000814359
-0.000823808
-0.000833654
-0.000843889
-0.000854539
-0.000865633
-0.000877155
-0.000889128
-0.000901556
-0.000914468
-0.000927859
-0.000941737
-0.000956114
-0.000970975
-0.000986302
-0.00100211
-0.00101837
-0.00103512
-0.00105237
-0.0010701
-0.0010883
-0.00110698
-0.00112617
-0.00114583
-0.001166
-0.00118667
-0.00120783
-0.00122947
-0.00125161
-0.00127424
-0.00129731
-0.0013208
-0.00134471
-0.00136901
-0.00139366
-0.00141866
-0.00144402
-0.00146973
-0.00149573
-0.00152199
-0.00154853
-0.00157531
-0.00160229
-0.00162948
-0.00165689
-0.00168451
-0.00171231
-0.00174032
-0.00176853
-0.0017969
-0.00182538
-0.00185393
-0.00188254
-0.00191119
-0.00193982
-0.00196841
-0.00199694
-0.00202542
-0.00205384
-0.00208216
-0.00211035
-0.00213841
-0.00216634
-0.00219411
-0.00222169
-0.0022491
-0.00227633
-0.00230336
-0.00233017
-0.00235673
-0.00238306
-0.00240911
-0.00243484
-0.0024602
-0.00248518
-0.00250982
-0.00253408
-0.00255792
-0.00258134
-0.00260435
-0.00262698
-0.00264921
-0.002671
-0.0026923
-0.00271311
-0.00273341
-0.00275313
-0.00277223
-0.00279072
-0.0028086
-0.00282585
-0.00284244
-0.00285836
-0.00287364
-0.00288831
-0.00290234
-0.00291569
-0.00292829
-0.00294016
-0.00295136
-0.00296187
-0.00297166
-0.00298069
-0.00298898
-0.00299654
-0.0030034
-0.00300956
-0.00301502
-0.0030198
-0.00302392
-0.00302735
-0.00303007
-0.00303205
-0.00303336
-0.00303403
-0.00303408
-0.00303348
-0.00303221
-0.00303025
-0.00302769
-0.00302458
-0.00302098
-0.00301691
-0.00301242
-0.00300756
-0.00300239
-0.00299693
-0.00299117
-0.00298513
-0.00297884
-0.00297233
-0.00296558
-0.00295859
-0.00295145
-0.00294418
-0.00293621
-0.00292711
-0.000786368
-0.000770163
-0.000759744
-0.000752628
-0.000747424
-0.000743366
-0.000740558
-0.000739095
-0.00073877
-0.00073979
-0.000741869
-0.000744891
-0.000748754
-0.000753192
-0.000758336
-0.000764005
-0.000770123
-0.000776675
-0.000783629
-0.000790937
-0.000798582
-0.000806556
-0.000814883
-0.000823599
-0.000832757
-0.000842315
-0.000852308
-0.000862776
-0.000873673
-0.000885018
-0.00089685
-0.00090915
-0.000921948
-0.000935236
-0.000949
-0.000963272
-0.000978043
-0.000993283
-0.001009
-0.0010252
-0.00104187
-0.00105903
-0.00107667
-0.0010948
-0.0011134
-0.00113248
-0.00115206
-0.00117214
-0.0011927
-0.00121375
-0.00123529
-0.00125733
-0.00127983
-0.00130277
-0.00132614
-0.00134993
-0.00137409
-0.00139858
-0.00142343
-0.00144864
-0.00147417
-0.00149999
-0.00152611
-0.00155249
-0.00157907
-0.00160586
-0.00163286
-0.00166009
-0.0016875
-0.00171512
-0.00174294
-0.00177095
-0.00179911
-0.00182738
-0.00185574
-0.00188416
-0.00191258
-0.00194096
-0.00196931
-0.00199762
-0.00202589
-0.00205408
-0.00208216
-0.00211013
-0.00213796
-0.00216566
-0.00219318
-0.00222053
-0.00224773
-0.00227474
-0.00230155
-0.00232813
-0.0023545
-0.00238064
-0.00240648
-0.00243199
-0.00245713
-0.00248193
-0.00250638
-0.00253043
-0.00255406
-0.00257729
-0.00260014
-0.00262261
-0.00264465
-0.00266626
-0.00268741
-0.00270807
-0.00272822
-0.00274779
-0.00276677
-0.00278514
-0.00280292
-0.00282006
-0.00283652
-0.00285233
-0.00286754
-0.00288215
-0.00289609
-0.00290934
-0.00292188
-0.00293372
-0.00294491
-0.00295541
-0.00296518
-0.00297422
-0.00298252
-0.00299011
-0.002997
-0.0030032
-0.0030087
-0.00301355
-0.00301775
-0.00302126
-0.00302403
-0.00302609
-0.0030275
-0.00302829
-0.00302844
-0.00302792
-0.00302669
-0.00302481
-0.00302233
-0.0030193
-0.00301574
-0.00301171
-0.00300723
-0.00300235
-0.00299714
-0.00299159
-0.00298569
-0.00297947
-0.00297298
-0.00296623
-0.00295917
-0.00295178
-0.00294413
-0.0029363
-0.00292763
-0.00291761
-0.000820399
-0.000802693
-0.00079076
-0.000781992
-0.000775005
-0.000769412
-0.000765115
-0.000762028
-0.000760286
-0.000759757
-0.000760416
-0.000762218
-0.000764865
-0.000768301
-0.000772456
-0.000777222
-0.000782534
-0.00078837
-0.000794648
-0.000801364
-0.000808523
-0.000816036
-0.000823953
-0.000832334
-0.000841159
-0.000850452
-0.000860213
-0.000870473
-0.00088118
-0.000892361
-0.000904045
-0.000916219
-0.000928892
-0.000942072
-0.000955737
-0.000969897
-0.000984562
-0.000999714
-0.00101536
-0.00103149
-0.00104809
-0.00106518
-0.00108275
-0.0011008
-0.00111933
-0.00113832
-0.00115782
-0.00117781
-0.00119827
-0.00121924
-0.0012407
-0.00126264
-0.00128502
-0.00130786
-0.00133113
-0.00135478
-0.00137879
-0.00140316
-0.00142789
-0.00145295
-0.00147831
-0.001504
-0.00152998
-0.00155619
-0.0015826
-0.00160923
-0.00163606
-0.00166309
-0.00169032
-0.00171776
-0.00174542
-0.00177324
-0.00180121
-0.00182929
-0.00185746
-0.00188568
-0.00191388
-0.00194205
-0.00197018
-0.00199829
-0.00202635
-0.00205432
-0.00208219
-0.00210996
-0.0021376
-0.00216507
-0.00219237
-0.00221952
-0.00224651
-0.00227331
-0.00229991
-0.0023263
-0.0023525
-0.00237845
-0.00240409
-0.00242939
-0.00245436
-0.00247899
-0.00250325
-0.00252711
-0.00255057
-0.00257364
-0.00259635
-0.00261865
-0.00264053
-0.00266198
-0.00268299
-0.00270353
-0.00272352
-0.00274296
-0.00276182
-0.0027801
-0.00279778
-0.0028148
-0.00283116
-0.00284689
-0.00286204
-0.00287657
-0.00289043
-0.0029036
-0.00291609
-0.00292793
-0.00293911
-0.0029496
-0.00295937
-0.00296842
-0.00297675
-0.00298437
-0.00299128
-0.0029975
-0.00300306
-0.00300798
-0.00301225
-0.0030158
-0.00301863
-0.00302077
-0.00302229
-0.00302317
-0.0030234
-0.00302294
-0.00302177
-0.00301995
-0.00301754
-0.00301456
-0.00301104
-0.00300701
-0.00300252
-0.00299762
-0.00299234
-0.00298667
-0.0029806
-0.00297418
-0.00296748
-0.00296047
-0.00295306
-0.00294525
-0.00293712
-0.00292875
-0.00291942
-0.00290853
-0.000850614
-0.000831804
-0.000818525
-0.000808443
-0.000800163
-0.000793113
-0.000787474
-0.000783189
-0.000780152
-0.000778373
-0.00077783
-0.000778428
-0.000780014