/*--------------------------------*- C++ -*----------------------------------*\
  =========                 |
  \\      /  F ield         | OpenFOAM: The Open Source CFD Toolbox
   \\    /   O peration     | Website:  https://openfoam.org
    \\  /    A nd           | Version:  7
     \\/     M anipulation  |
\*---------------------------------------------------------------------------*/
FoamFile
{
    version     2.0;
    format      ascii;
    class       surfaceScalarField;
    location    "0.15";
    object      phi;
}
// * * * * * * * * * * * * * * * * * * * * * * * * * * * * * * * * * * * * * //

dimensions      [0 3 -1 0 0 0 0];

internalField   nonuniform List<scalar> 
101920
(
-3.36344e-12
3.35643e-12
-2.94402e-12
-4.1958e-13
4.31231e-12
-7.25596e-12
1.32279e-11
-8.91665e-12
2.1171e-11
-7.94395e-12
2.75907e-11
-6.42095e-12
3.25627e-11
-4.9671e-12
3.63407e-11
-3.77794e-12
3.91813e-11
-2.84031e-12
4.1326e-11
-2.14071e-12
4.29649e-11
-1.64229e-12
4.42878e-11
-1.32217e-12
4.53764e-11
-1.08839e-12
4.6354e-11
-9.80434e-13
4.73052e-11
-9.5026e-13
4.82783e-11
-9.79159e-13
4.93193e-11
-1.03664e-12
5.0449e-11
-1.12741e-12
5.16868e-11
-1.23931e-12
5.30433e-11
-1.35235e-12
5.45241e-11
-1.48444e-12
5.61281e-11
-1.60029e-12
5.7845e-11
-1.72124e-12
5.96755e-11
-1.83191e-12
6.16147e-11
-1.93551e-12
6.3646e-11
-2.03402e-12
6.57675e-11
-2.11967e-12
6.79651e-11
-2.19734e-12
7.02279e-11
-2.26415e-12
7.25529e-11
-2.322e-12
7.49261e-11
-2.37196e-12
7.73411e-11
-2.41593e-12
7.97902e-11
-2.44666e-12
8.22645e-11
-2.47626e-12
8.47622e-11
-2.49754e-12
8.72748e-11
-2.51138e-12
8.97954e-11
-2.52162e-12
9.23168e-11
-2.52134e-12
9.48284e-11
-2.51211e-12
9.73288e-11
-2.50219e-12
9.98126e-11
-2.48444e-12
1.02278e-10
-2.46497e-12
1.04719e-10
-2.44326e-12
1.07133e-10
-2.41532e-12
1.0951e-10
-2.3781e-12
1.11849e-10
-2.34088e-12
1.14144e-10
-2.29774e-12
1.16392e-10
-2.24812e-12
1.18589e-10
-2.198e-12
1.20734e-10
-2.14634e-12
1.22823e-10
-2.08861e-12
1.24854e-10
-2.03062e-12
1.26827e-10
-1.97522e-12
1.28744e-10
-1.91442e-12
1.30595e-10
-1.85046e-12
1.32383e-10
-1.7884e-12
1.3411e-10
-1.72579e-12
1.35769e-10
-1.65747e-12
1.37359e-10
-1.58921e-12
1.3888e-10
-1.52155e-12
1.40331e-10
-1.4484e-12
1.41704e-10
-1.3743e-12
1.43004e-10
-1.30265e-12
1.44232e-10
-1.22844e-12
1.45383e-10
-1.15136e-12
1.46456e-10
-1.07532e-12
1.47454e-10
-9.98633e-13
1.48373e-10
-9.19021e-13
1.49212e-10
-8.39241e-13
1.49971e-10
-7.59989e-13
1.50654e-10
-6.79931e-13
1.51255e-10
-5.98006e-13
1.5177e-10
-5.13824e-13
1.52199e-10
-4.28283e-13
1.52542e-10
-3.42742e-13
1.52798e-10
-2.581e-13
1.52971e-10
-1.73998e-13
1.53061e-10
-8.9411e-14
1.53064e-10
-3.64533e-15
1.52978e-10
8.45479e-14
1.52801e-10
1.75732e-13
1.52537e-10
2.67077e-13
1.52186e-10
3.54752e-13
1.51749e-10
4.39174e-13
1.51226e-10
5.2316e-13
1.50617e-10
6.07956e-13
1.4992e-10
6.93217e-13
1.49139e-10
7.79371e-13
1.48272e-10
8.67096e-13
1.47321e-10
9.54155e-13
1.46284e-10
1.03905e-12
1.45162e-10
1.12306e-12
1.43955e-10
1.20714e-12
1.42661e-10
1.29248e-12
1.41281e-10
1.37835e-12
1.39816e-10
1.46306e-12
1.3827e-10
1.54697e-12
1.36641e-10
1.63011e-12
1.3493e-10
1.71154e-12
1.3314e-10
1.79016e-12
1.31272e-10
1.86649e-12
1.29328e-10
1.94259e-12
1.2731e-10
2.01838e-12
1.25216e-10
2.09301e-12
1.23049e-10
2.16656e-12
1.2081e-10
2.23923e-12
1.18498e-10
2.31156e-12
1.16115e-10
2.38257e-12
1.13664e-10
2.45083e-12
1.11145e-10
2.51741e-12
1.08563e-10
2.58274e-12
1.05917e-10
2.64532e-12
1.03212e-10
2.70444e-12
1.00452e-10
2.75993e-12
9.76388e-11
2.8126e-12
9.4775e-11
2.86383e-12
9.18624e-11
2.91285e-12
8.89042e-11
2.95797e-12
8.59049e-11
2.99921e-12
8.28679e-11
3.03705e-12
7.97965e-11
3.07127e-12
7.66951e-11
3.10164e-12
7.35674e-11
3.12775e-12
7.04183e-11
3.14891e-12
6.72527e-11
3.16546e-12
6.40744e-11
3.17787e-12
6.08898e-11
3.18455e-12
5.77059e-11
3.1846e-12
5.45265e-11
3.17968e-12
5.13564e-11
3.16986e-12
4.82024e-11
3.15346e-12
4.50714e-11
3.13045e-12
4.19713e-11
3.10036e-12
3.89104e-11
3.06176e-12
3.5895e-11
3.01552e-12
3.29321e-11
2.96244e-12
3.00313e-11
2.90017e-12
2.72032e-11
2.82749e-12
2.44568e-11
2.7462e-12
2.18011e-11
2.6561e-12
1.92457e-11
2.55561e-12
1.67999e-11
2.44563e-12
1.44731e-11
2.32666e-12
1.22754e-11
2.1972e-12
1.02179e-11
2.05701e-12
8.31128e-12
1.90681e-12
6.56613e-12
1.74534e-12
4.99456e-12
1.57134e-12
3.60714e-12
1.38727e-12
2.41054e-12
1.19615e-12
1.41252e-12
9.97783e-13
6.21638e-13
7.91295e-13
4.34294e-14
5.79119e-13
-3.23456e-13
3.67286e-13
-4.8751e-13
1.63896e-13
-4.70947e-13
-1.66793e-14
-3.22295e-13
-1.48922e-13
-1.27155e-13
-1.94625e-13
-9.77826e-15
-1.17038e-13
-9.70221e-15
-9.60376e-12
1.29595e-11
-1.52264e-11
5.20335e-12
-9.85471e-12
-1.2629e-11
1.01272e-12
-1.97805e-11
1.32186e-11
-2.01499e-11
2.48249e-11
-1.80276e-11
3.51384e-11
-1.52825e-11
4.40467e-11
-1.26858e-11
5.17159e-11
-1.05109e-11
5.83959e-11
-8.81929e-12
6.43319e-11
-7.58116e-12
6.97407e-11
-6.72924e-12
7.48579e-11
-6.2067e-12
7.98194e-11
-5.93774e-12
8.47576e-11
-5.88839e-12
8.97694e-11
-5.98735e-12
9.49305e-11
-6.19918e-12
1.0028e-10
-6.48214e-12
1.05859e-10
-6.8144e-12
1.11676e-10
-7.17485e-12
1.17742e-10
-7.54753e-12
1.24055e-10
-7.91384e-12
1.30603e-10
-8.26914e-12
1.37374e-10
-8.60221e-12
1.44353e-10
-8.91721e-12
1.51523e-10
-9.20252e-12
1.58863e-10
-9.45765e-12
1.66352e-10
-9.68834e-12
1.73972e-10
-9.88336e-12
1.81699e-10
-1.00516e-11
1.89517e-10
-1.01913e-11
1.97405e-10
-1.03018e-11
2.05344e-10
-1.03867e-11
2.13319e-10
-1.04508e-11
2.21312e-10
-1.04878e-11
2.29306e-10
-1.05062e-11
2.37286e-10
-1.05014e-11
2.45237e-10
-1.04685e-11
2.5314e-10
-1.04141e-11
2.60984e-10
-1.03443e-11
2.68757e-10
-1.02541e-11
2.76445e-10
-1.0152e-11
2.84039e-10
-1.00358e-11
2.91528e-10
-9.89909e-12
2.98896e-10
-9.74506e-12
3.06137e-10
-9.57934e-12
3.13238e-10
-9.3949e-12
3.20189e-10
-9.19771e-12
3.26985e-10
-8.99415e-12
3.33619e-10
-8.77686e-12
3.40081e-10
-8.54915e-12
3.46367e-10
-8.31815e-12
3.52473e-10
-8.08076e-12
3.58391e-10
-7.83286e-12
3.64118e-10
-7.58086e-12
3.69652e-10
-7.32431e-12
3.74985e-10
-7.05823e-12
3.80111e-10
-6.78625e-12
3.85028e-10
-6.51044e-12
3.89734e-10
-6.22631e-12
3.94221e-10
-5.9347e-12
3.98487e-10
-5.6406e-12
4.02532e-10
-5.34331e-12
4.06348e-10
-5.04158e-12
4.09932e-10
-4.73677e-12
4.13287e-10
-4.42891e-12
4.16411e-10
-4.11802e-12
4.19296e-10
-3.80424e-12
4.21943e-10
-3.48798e-12
4.24351e-10
-3.16868e-12
4.26514e-10
-2.84583e-12
4.2843e-10
-2.51807e-12
4.30101e-10
-2.18473e-12
4.31526e-10
-1.84945e-12
4.327e-10
-1.51491e-12
4.33623e-10
-1.17945e-12
4.34293e-10
-8.41932e-13
4.34711e-10
-5.036e-13
4.34873e-10
-1.64539e-13
4.34781e-10
1.77102e-13
4.34435e-10
5.21523e-13
4.33832e-10
8.66259e-13
4.32973e-10
1.20957e-12
4.31859e-10
1.55224e-12
4.30493e-10
1.89402e-12
4.28874e-10
2.23312e-12
4.27002e-10
2.56961e-12
4.24877e-10
2.90518e-12
4.225e-10
3.24154e-12
4.19872e-10
3.57811e-12
4.16996e-10
3.91297e-12
4.13872e-10
4.24744e-12
4.105e-10
4.58204e-12
4.0688e-10
4.91483e-12
4.03015e-10
5.24471e-12
3.98905e-10
5.57158e-12
3.94554e-10
5.89613e-12
3.89964e-10
6.21804e-12
3.85139e-10
6.53539e-12
3.80083e-10
6.84685e-12
3.74798e-10
7.15231e-12
3.69287e-10
7.45309e-12
3.63555e-10
7.74964e-12
3.57604e-10
8.04189e-12
3.51439e-10
8.33068e-12
3.45063e-10
8.61538e-12
3.38479e-10
8.89471e-12
3.31694e-10
9.16758e-12
3.24712e-10
9.43233e-12
3.17539e-10
9.68937e-12
3.10182e-10
9.93935e-12
3.02647e-10
1.01797e-11
2.94942e-10
1.04089e-11
2.87076e-10
1.06271e-11
2.79054e-10
1.08344e-11
2.70885e-10
1.10319e-11
2.62579e-10
1.12188e-11
2.54145e-10
1.13923e-11
2.45593e-10
1.15512e-11
2.36934e-10
1.1696e-11
2.28179e-10
1.1826e-11
2.19341e-10
1.19399e-11
2.10431e-10
1.20377e-11
2.01463e-10
1.21183e-11
1.92449e-10
1.21801e-11
1.83404e-10
1.22221e-11
1.74344e-10
1.22439e-11
1.65284e-10
1.2244e-11
1.56242e-10
1.22219e-11
1.47234e-10
1.2178e-11
1.38278e-10
1.21095e-11
1.29395e-10
1.20136e-11
1.20605e-10
1.18902e-11
1.11927e-10
1.17391e-11
1.03384e-10
1.15585e-11
9.50001e-11
1.13471e-11
8.67975e-11
1.11035e-11
7.87999e-11
1.08248e-11
7.10338e-11
1.05107e-11
6.35262e-11
1.01627e-11
5.63023e-11
9.77946e-12
4.93892e-11
9.35896e-12
4.28149e-11
8.9012e-12
3.66058e-11
8.4063e-12
3.07888e-11
7.87301e-12
2.53947e-11
7.30028e-12
2.0452e-11
6.68827e-12
1.59851e-11
6.03831e-12
1.20195e-11
5.35328e-12
8.57869e-12
4.63738e-12
5.68028e-12
3.89602e-12
3.33451e-12
3.13603e-12
1.54605e-12
2.36716e-12
3.05787e-13
1.60804e-12
-4.19641e-13
8.89833e-13
-6.92958e-13
2.57693e-13
-6.18449e-13
-2.23419e-13
-3.57143e-13
-4.55771e-13
-1.14435e-13
-3.58906e-13
-1.24242e-13
-1.27393e-11
2.56992e-11
-2.43065e-11
1.67721e-11
-2.53391e-11
-1.15962e-11
-1.89896e-11
-2.61341e-11
-8.89799e-12
-3.02424e-11
2.61396e-12
-2.95419e-11
1.43023e-11
-2.69711e-11
2.56002e-11
-2.39852e-11
3.63452e-11
-2.12516e-11
4.65278e-11
-1.90019e-11
5.63001e-11
-1.73518e-11
6.5811e-11
-1.62385e-11
7.52009e-11
-1.55925e-11
8.45997e-11
-1.53365e-11
9.41194e-11
-1.54072e-11
1.03832e-10
-1.57047e-11
1.13805e-10
-1.6168e-11
1.24083e-10
-1.67604e-11
1.34674e-10
-1.7409e-11
1.4561e-10
-1.81073e-11
1.56869e-10
-1.88057e-11
1.68459e-10
-1.94989e-11
1.80354e-10
-2.01635e-11
1.92538e-10
-2.07862e-11
2.04989e-10
-2.13678e-11
2.17677e-10
-2.18911e-11
2.30579e-10
-2.2362e-11
2.43667e-10
-2.2774e-11
2.56909e-10
-2.31268e-11
2.70278e-10
-2.34212e-11
2.83751e-10
-2.36629e-11
2.97294e-10
-2.38451e-11
3.10882e-10
-2.39776e-11
3.24492e-10
-2.40587e-11
3.38096e-10
-2.40932e-11
3.51668e-10
-2.40796e-11
3.65189e-10
-2.40203e-11
3.78632e-10
-2.39144e-11
3.91979e-10
-2.37643e-11
4.05209e-10
-2.35744e-11
4.18303e-10
-2.33504e-11
4.31238e-10
-2.30898e-11
4.44001e-10
-2.27992e-11
4.56572e-10
-2.24717e-11
4.68937e-10
-2.21139e-11
4.8108e-10
-2.17224e-11
4.92988e-10
-2.13034e-11
5.04646e-10
-2.0859e-11
5.16043e-10
-2.03897e-11
5.27164e-10
-1.98992e-11
5.38003e-10
-1.93893e-11
5.48548e-10
-1.88625e-11
5.58789e-10
-1.83183e-11
5.68715e-10
-1.77603e-11
5.78321e-10
-1.71871e-11
5.87599e-10
-1.65992e-11
5.9654e-10
-1.59988e-11
6.05138e-10
-1.5386e-11
6.13389e-10
-1.47596e-11
6.21283e-10
-1.41209e-11
6.28815e-10
-1.34717e-11
6.35985e-10
-1.28118e-11
6.42784e-10
-1.21424e-11
6.49206e-10
-1.14654e-11
6.55247e-10
-1.07804e-11
6.60906e-10
-1.00868e-11
6.66174e-10
-9.38648e-12
6.71049e-10
-8.68034e-12
6.75534e-10
-7.96826e-12
6.79621e-10
-7.25197e-12
6.83306e-10
-6.53045e-12
6.86587e-10
-5.80058e-12
6.89465e-10
-5.06239e-12
6.91935e-10
-4.32028e-12
6.93995e-10
-3.57648e-12
6.95645e-10
-2.83005e-12
6.96884e-10
-2.0808e-12
6.97707e-10
-1.32879e-12
6.98116e-10
-5.73091e-13
6.98111e-10
1.86002e-13
6.97691e-10
9.45871e-13
6.96855e-10
1.70423e-12
6.95603e-10
2.46091e-12
6.93934e-10
3.21737e-12
6.91851e-10
3.97383e-12
6.89355e-10
4.72797e-12
6.86446e-10
5.47974e-12
6.83126e-10
6.22931e-12
6.79396e-10
6.97507e-12
6.75257e-10
7.71772e-12
6.7071e-10
8.45809e-12
6.65758e-10
9.19666e-12
6.60405e-10
9.93406e-12
6.54651e-10
1.06678e-11
6.48501e-10
1.13959e-11
6.41956e-10
1.21181e-11
6.35019e-10
1.28329e-11
6.27696e-10
1.35404e-11
6.19989e-10
1.42398e-11
6.11906e-10
1.49292e-11
6.0345e-10
1.56083e-11
5.94625e-10
1.62771e-11
5.85439e-10
1.69351e-11
5.75898e-10
1.75825e-11
5.66008e-10
1.82197e-11
5.55777e-10
1.88459e-11
5.45212e-10
1.9459e-11
5.34321e-10
2.00572e-11
5.23115e-10
2.06388e-11
5.116e-10
2.12033e-11
4.99788e-10
2.17502e-11
4.87691e-10
2.22765e-11
4.75319e-10
2.27802e-11
4.62685e-10
2.32611e-11
4.49802e-10
2.3718e-11
4.36682e-10
2.41504e-11
4.23344e-10
2.4557e-11
4.09801e-10
2.49351e-11
3.9607e-10
2.52826e-11
3.82168e-10
2.5598e-11
3.68114e-10
2.58798e-11
3.53927e-10
2.61268e-11
3.39627e-10
2.63373e-11
3.25236e-10
2.65092e-11
3.10775e-10
2.66408e-11
2.96269e-10
2.67291e-11
2.81742e-10
2.67713e-11
2.67219e-10
2.67665e-11
2.52726e-10
2.67135e-11
2.38294e-10
2.66094e-11
2.23953e-10
2.64514e-11
2.09731e-10
2.62362e-11
1.95661e-10
2.59602e-11
1.81777e-10
2.56224e-11
1.68112e-10
2.52221e-11
1.54703e-10
2.47557e-11
1.41588e-10
2.42188e-11
1.28804e-10
2.36092e-11
1.16389e-10
2.29258e-11
1.04384e-10
2.21668e-11
9.28321e-11
2.13308e-11
8.1774e-11
2.04167e-11
7.12511e-11
1.94235e-11
6.1308e-11
1.83493e-11
5.19874e-11
1.71938e-11
4.33295e-11
1.59577e-11
3.53758e-11
1.46413e-11
2.8166e-11
1.32472e-11
2.17359e-11
1.17833e-11
1.61144e-11
1.02593e-11
1.13264e-11
8.6852e-12
7.38511e-12
7.07735e-12
4.28778e-12
5.46347e-12
2.01275e-12
3.88286e-12
5.11687e-13
2.39091e-12
-2.98527e-13
1.06845e-12
-5.51479e-13
2.94065e-14
-4.35272e-13
-5.71658e-13
-1.86092e-13
-6.072e-13
-3.10629e-13
-1.08452e-11
3.65448e-11
-2.29717e-11
2.88922e-11
-2.73478e-11
-7.21163e-12
-2.47574e-11
-2.87247e-11
-1.7485e-11
-3.75125e-11
-7.43187e-12
-3.95905e-11
4.08783e-12
-3.84938e-11
1.62907e-11
-3.6194e-11
2.87676e-11
-3.37319e-11
4.13858e-11
-3.16138e-11
5.407e-11
-3.00401e-11
6.68707e-11
-2.90429e-11
7.98584e-11
-2.85829e-11
9.31171e-11
-2.85929e-11
1.06679e-10
-2.89734e-11
1.2063e-10
-2.96485e-11
1.34987e-10
-3.05261e-11
1.49772e-10
-3.15428e-11
1.65006e-10
-3.26424e-11
1.80672e-10
-3.37766e-11
1.96771e-10
-3.49068e-11
2.13282e-10
-3.6012e-11
2.30177e-10
-3.70568e-11
2.47431e-10
-3.80413e-11
2.65011e-10
-3.89446e-11
2.82881e-10
-3.97605e-11
3.01009e-10
-4.04886e-11
3.19357e-10
-4.112e-11
3.37889e-10
-4.16597e-11
3.5657e-10
-4.21018e-11
3.75362e-10
-4.24534e-11
3.94229e-10
-4.27134e-11
4.13142e-10
-4.28874e-11
4.32059e-10
-4.29753e-11
4.5095e-10
-4.29849e-11
4.69786e-10
-4.29123e-11
4.88532e-10
-4.27657e-11
5.07161e-10
-4.2543e-11
5.25648e-10
-4.22484e-11
5.43962e-10
-4.18883e-11
5.62079e-10
-4.14666e-11
5.79975e-10
-4.09833e-11
5.97622e-10
-4.04457e-11
6.15001e-10
-3.98519e-11
6.32093e-10
-3.92033e-11
6.48876e-10
-3.85052e-11
6.65332e-10
-3.77602e-11
6.81444e-10
-3.69707e-11
6.97197e-10
-3.61404e-11
7.1257e-10
-3.52745e-11
7.27553e-10
-3.4373e-11
7.42131e-10
-3.34389e-11
7.56288e-10
-3.24777e-11
7.70015e-10
-3.14882e-11
7.833e-10
-3.04712e-11
7.96131e-10
-2.94304e-11
8.08496e-10
-2.83665e-11
8.20391e-10
-2.72792e-11
8.31806e-10
-2.61713e-11
8.42728e-10
-2.50445e-11
8.53155e-10
-2.3898e-11
8.6308e-10
-2.27339e-11
8.72492e-10
-2.15551e-11
8.81387e-10
-2.03616e-11
8.89763e-10
-1.91537e-11
8.9761e-10
-1.79333e-11
9.04921e-10
-1.67006e-11
9.11693e-10
-1.54548e-11
9.17923e-10
-1.4198e-11
9.23605e-10
-1.29336e-11
9.28736e-10
-1.16611e-11
9.33317e-10
-1.0379e-11
9.37345e-10
-9.08813e-12
9.40814e-10
-7.78989e-12
9.43722e-10
-6.48455e-12
9.46068e-10
-5.17339e-12
9.47848e-10
-3.85965e-12
9.4906e-10
-2.54321e-12
9.49706e-10
-1.22159e-12
9.49787e-10
1.04787e-13
9.493e-10
1.43301e-12
9.48245e-10
2.76124e-12
9.46622e-10
4.08817e-12
9.4443e-10
5.41224e-12
9.41669e-10
6.73349e-12
9.38343e-10
8.05203e-12
9.34453e-10
9.36796e-12
9.30001e-10
1.06814e-11
9.24987e-10
1.19898e-11
9.19415e-10
1.32916e-11
9.13287e-10
1.4588e-11
9.06606e-10
1.58792e-11
8.99374e-10
1.71648e-11
8.91596e-10
1.84437e-11
8.83278e-10
1.97136e-11
8.74423e-10
2.09738e-11
8.65033e-10
2.22226e-11
8.55117e-10
2.34575e-11
8.44679e-10
2.46778e-11
8.33724e-10
2.58828e-11
8.22261e-10
2.70709e-11
8.10296e-10
2.82412e-11
7.97838e-10
2.93926e-11
7.84897e-10
3.05246e-11
7.7148e-10
3.16367e-11
7.57598e-10
3.27273e-11
7.43263e-10
3.37936e-11
7.28486e-10
3.48337e-11
7.13279e-10
3.58457e-11
6.97656e-10
3.68272e-11
6.81629e-10
3.77764e-11
6.65215e-10
3.86906e-11
6.48429e-10
3.95664e-11
6.31287e-10
4.04022e-11
6.13809e-10
4.11965e-11
5.96013e-10
4.19468e-11
5.7792e-10
4.26502e-11
5.59552e-10
4.33037e-11
5.4093e-10
4.39045e-11
5.22078e-10
4.44499e-11
5.03022e-10
4.49365e-11
4.83788e-10
4.53611e-11
4.64404e-10
4.57218e-11
4.44898e-10
4.60151e-11
4.25301e-10
4.62371e-11
4.05646e-10
4.63845e-11
3.85965e-10
4.64529e-11
3.66294e-10
4.64381e-11
3.46668e-10
4.63385e-11
3.27127e-10
4.61505e-11
3.0771e-10
4.58681e-11
2.8846e-10
4.54867e-11
2.69418e-10
4.50029e-11
2.50628e-10
4.44128e-11
2.32138e-10
4.37126e-11
2.13994e-10
4.28988e-11
1.96246e-10
4.19667e-11
1.78943e-10
4.09115e-11
1.62139e-10
3.97304e-11
1.45885e-10
3.84213e-11
1.30234e-10
3.69812e-11
1.15243e-10
3.5407e-11
1.00968e-10
3.36983e-11
8.74616e-11
3.18553e-11
7.47792e-11
2.98766e-11
6.29751e-11
2.77622e-11
5.20996e-11
2.55165e-11
4.21987e-11
2.31473e-11
3.33167e-11
2.0665e-11
2.54905e-11
1.8085e-11
1.87455e-11
1.54301e-11
1.30932e-11
1.27304e-11
8.52836e-12
1.00283e-11
5.02406e-12
7.3867e-12
2.5199e-12
4.89424e-12
9.20823e-13
2.66766e-12
8.45343e-14
8.65294e-13
-1.84608e-13
-3.0259e-13
-1.33656e-13
-6.57218e-13
-4.44709e-13
-7.26982e-12
4.38155e-11
-1.69568e-11
3.85835e-11
-2.18675e-11
-2.30635e-12
-2.12043e-11
-2.93876e-11
-1.59274e-11
-4.27897e-11
-7.28132e-12
-4.82408e-11
3.6853e-12
-4.94585e-11
1.62119e-11
-4.87156e-11
2.97977e-11
-4.73143e-11
4.41272e-11
-4.59512e-11
5.9073e-11
-4.4982e-11
7.45749e-11
-4.45426e-11
9.0612e-11
-4.46225e-11
1.07192e-10
-4.51669e-11
1.24332e-10
-4.61203e-11
1.42033e-10
-4.73537e-11
1.60333e-10
-4.88235e-11
1.79204e-10
-5.04187e-11
1.9866e-10
-5.20938e-11
2.18664e-10
-5.37845e-11
2.39207e-10
-5.54471e-11
2.60249e-10
-5.70536e-11
2.81765e-10
-5.85722e-11
3.0371e-10
-5.99869e-11
3.26043e-10
-6.12791e-11
3.48727e-10
-6.24461e-11
3.71715e-10
-6.34752e-11
3.94961e-10
-6.43679e-11
4.18422e-10
-6.51212e-11
4.42056e-10
-6.57352e-11
4.65812e-10
-6.62114e-11
4.89657e-10
-6.65577e-11
5.1354e-10
-6.67703e-11
5.3742e-10
-6.68593e-11
5.61262e-10
-6.68263e-11
5.85023e-10
-6.66741e-11
6.08663e-10
-6.64087e-11
6.32156e-10
-6.60343e-11
6.55459e-10
-6.55522e-11
6.78541e-10
-6.49738e-11
7.01373e-10
-6.42977e-11
7.23923e-10
-6.35339e-11
7.46158e-10
-6.26832e-11
7.68058e-10
-6.17509e-11
7.89592e-10
-6.07378e-11
8.10738e-10
-5.96522e-11
8.31473e-10
-5.84961e-11
8.51776e-10
-5.72718e-11
8.71624e-10
-5.59893e-11
8.90999e-10
-5.46497e-11
9.09883e-10
-5.32552e-11
9.28257e-10
-5.18124e-11
9.46102e-10
-5.03248e-11
9.63408e-10
-4.87923e-11
9.80157e-10
-4.72207e-11
9.96335e-10
-4.56106e-11
1.01193e-09
-4.39634e-11
1.02694e-09
-4.22825e-11
1.04133e-09
-4.05699e-11
1.05511e-09
-3.88272e-11
1.06827e-09
-3.70559e-11
1.0808e-09
-3.52582e-11
1.09268e-09
-3.34362e-11
1.10391e-09
-3.1591e-11
1.11448e-09
-2.9725e-11
1.12438e-09
-2.78406e-11
1.13362e-09
-2.59376e-11
1.14219e-09
-2.40164e-11
1.15007e-09
-2.20795e-11
1.15726e-09
-2.01277e-11
1.16376e-09
-1.81617e-11
1.16956e-09
-1.61839e-11
1.17467e-09
-1.41966e-11
1.17908e-09
-1.21989e-11
1.18279e-09
-1.01905e-11
1.18579e-09
-8.17322e-12
1.18808e-09
-6.15e-12
1.18966e-09
-4.12174e-12
1.19053e-09
-2.08858e-12
1.19068e-09
-5.19505e-14
1.19013e-09
1.98697e-12
1.18886e-09
4.02792e-12
1.18688e-09
6.0694e-12
1.18418e-09
8.10764e-12
1.18078e-09
1.01405e-11
1.17666e-09
1.21688e-11
1.17184e-09
1.41925e-11
1.16631e-09
1.62108e-11
1.16007e-09
1.82223e-11
1.15314e-09
2.02253e-11
1.14551e-09
2.22202e-11
1.13718e-09
2.42058e-11
1.12817e-09
2.61799e-11
1.11847e-09
2.81422e-11
1.10809e-09
3.00911e-11
1.09704e-09
3.20245e-11
1.08532e-09
3.39406e-11
1.07294e-09
3.58366e-11
1.05991e-09
3.77106e-11
1.04623e-09
3.95611e-11
1.03191e-09
4.13862e-11
1.01697e-09
4.31837e-11
1.00141e-09
4.49522e-11
9.85246e-10
4.66902e-11
9.68487e-10
4.83959e-11
9.51147e-10
5.0067e-11
9.3324e-10
5.17001e-11
9.14782e-10
5.32919e-11
8.95787e-10
5.48402e-11
8.76271e-10
5.63423e-11
8.56254e-10
5.77936e-11
8.35754e-10
5.91903e-11
8.14792e-10
6.05291e-11
7.93387e-10
6.1807e-11
7.71563e-10
6.30205e-11
7.49345e-10
6.41655e-11
7.26758e-10
6.52376e-11
7.03828e-10
6.62334e-11
6.80584e-10
6.71482e-11
6.57056e-10
6.79776e-11
6.33275e-10
6.87174e-11
6.09275e-10
6.93623e-11
5.85089e-10
6.99076e-11
5.60754e-10
7.03498e-11
5.36309e-10
7.06828e-11
5.11793e-10
7.09e-11
4.87248e-10
7.09972e-11
4.62718e-10
7.0969e-11
4.38247e-10
7.08094e-11
4.13884e-10
7.05131e-11
3.89678e-10
7.00739e-11
3.65679e-10
6.94848e-11
3.41941e-10
6.87403e-11
3.18519e-10
6.78356e-11
2.95468e-10
6.67645e-11
2.72846e-10
6.55203e-11
2.50715e-10
6.40976e-11
2.29134e-10
6.24919e-11
2.08165e-10
6.06985e-11
1.87875e-10
5.87118e-11
1.68328e-10
5.65286e-11
1.49587e-10
5.41471e-11
1.3172e-10
5.15651e-11
1.14793e-10
4.87821e-11
9.88689e-11
4.57998e-11
8.40095e-11
4.26212e-11
7.02744e-11
3.92516e-11
5.77186e-11
3.57027e-11
4.63896e-11
3.19938e-11
3.63254e-11
2.81489e-11
2.75551e-11
2.41996e-11
2.00926e-11
2.01922e-11
1.39294e-11
1.61914e-11
9.03325e-12
1.22835e-11
5.34244e-12
8.58453e-12
2.76068e-12
5.24894e-12
1.14534e-12
2.47993e-12
3.038e-13
5.38351e-13
-6.02763e-16
-3.52154e-13
-4.45983e-13
-3.98709e-12
4.77979e-11
-1.03343e-11
4.49319e-11
-1.42007e-11
1.56181e-12
-1.39898e-11
-2.96032e-11
-9.69722e-12
-4.7076e-11
-1.89691e-12
-5.60297e-11
8.69425e-12
-6.00511e-11
2.14336e-11
-6.14631e-11
3.58461e-11
-6.17237e-11
5.15967e-11
-6.16998e-11
6.84629e-11
-6.18471e-11
8.62803e-11
-6.23631e-11
1.04994e-10
-6.33301e-11
1.24548e-10
-6.4723e-11
1.44903e-10
-6.64718e-11
1.66052e-10
-6.85047e-11
1.87956e-10
-7.0727e-11
2.10604e-10
-7.30637e-11
2.33957e-10
-7.54511e-11
2.57995e-10
-7.78154e-11
2.82665e-10
-8.01245e-11
3.07936e-10
-8.23248e-11
3.33762e-10
-8.43985e-11
3.6009e-10
-8.63169e-11
3.86874e-10
-8.80652e-11
4.14064e-10
-8.96339e-11
4.416e-10
-9.10136e-11
4.69439e-10
-9.22055e-11
4.97524e-10
-9.32034e-11
5.25799e-10
-9.40128e-11
5.54219e-10
-9.46303e-11
5.8273e-10
-9.50672e-11
6.11281e-10
-9.53212e-11
6.39826e-10
-9.54027e-11
6.68315e-10
-9.53141e-11
6.96703e-10
-9.50638e-11
7.24949e-10
-9.46527e-11
7.53008e-10
-9.40925e-11
7.80841e-10
-9.33869e-11
8.0841e-10
-9.25408e-11
8.35676e-10
-9.15649e-11
8.62605e-10
-9.04627e-11
8.8916e-10
-8.92396e-11
9.15314e-10
-8.79029e-11
9.41032e-10
-8.64574e-11
9.66287e-10
-8.49083e-11
9.91054e-10
-8.32612e-11
1.0153e-09
-8.15236e-11
1.03901e-09
-7.97e-11
1.06216e-09
-7.7795e-11
1.08472e-09
-7.58156e-11
1.10667e-09
-7.37668e-11
1.128e-09
-7.16505e-11
1.14868e-09
-6.94729e-11
1.1687e-09
-6.72384e-11
1.18803e-09
-6.49488e-11
1.20668e-09
-6.26076e-11
1.22461e-09
-6.02187e-11
1.24183e-09
-5.77842e-11
1.25831e-09
-5.5307e-11
1.27404e-09
-5.27907e-11
1.28902e-09
-5.02375e-11
1.30323e-09
-4.7649e-11
1.31667e-09
-4.50275e-11
1.32932e-09
-4.23766e-11
1.34118e-09
-3.96979e-11
1.35223e-09
-3.69931e-11
1.36248e-09
-3.42654e-11
1.37192e-09
-3.15169e-11
1.38054e-09
-2.8747e-11
1.38834e-09
-2.5957e-11
1.3953e-09
-2.31506e-11
1.40144e-09
-2.03303e-11
1.40673e-09
-1.74961e-11
1.41119e-09
-1.46493e-11
1.41481e-09
-1.1792e-11
1.41758e-09
-8.92454e-12
1.41951e-09
-6.04799e-12
1.42059e-09
-3.16527e-12
1.42082e-09
-2.79519e-13
1.4202e-09
2.60865e-12
1.41872e-09
5.49876e-12
1.4164e-09
8.38871e-12
1.41323e-09
1.12758e-11
1.40922e-09
1.41579e-11
1.40435e-09
1.7034e-11
1.39864e-09
1.99026e-11
1.39209e-09
2.27618e-11
1.3847e-09
2.56111e-11
1.37648e-09
2.84493e-11
1.36742e-09
3.12752e-11
1.35754e-09
3.40873e-11
1.34684e-09
3.68831e-11
1.33532e-09
3.96608e-11
1.32299e-09
4.24187e-11
1.30986e-09
4.51542e-11
1.29594e-09
4.78646e-11
1.28123e-09
5.05472e-11
1.26574e-09
5.31993e-11
1.24948e-09
5.58183e-11
1.23247e-09
5.84012e-11
1.21471e-09
6.09448e-11
1.19621e-09
6.34468e-11
1.177e-09
6.59053e-11
1.15708e-09
6.8317e-11
1.13647e-09
7.06775e-11
1.11518e-09
7.29834e-11
1.09324e-09
7.52312e-11
1.07067e-09
7.74165e-11
1.04747e-09
7.9535e-11
1.02369e-09
8.15815e-11
9.99326e-10
8.35508e-11
9.74417e-10
8.54383e-11
9.48986e-10
8.72391e-11
9.23058e-10
8.89483e-11
8.96663e-10
9.05603e-11
8.69833e-10
9.2069e-11
8.42597e-10
9.34691e-11
8.1499e-10
9.47551e-11
7.87049e-10
9.59197e-11
7.58809e-10
9.69567e-11
7.30311e-10
9.78607e-11
7.01594e-10
9.86244e-11
6.72704e-10
9.92405e-11
6.43685e-10
9.97023e-11
6.14583e-10
1.00002e-10
5.85449e-10
1.00131e-10
5.56334e-10
1.00084e-10
5.27292e-10
9.98522e-11
4.98377e-10
9.94276e-11
4.69651e-10
9.88011e-11
4.4117e-10
9.79657e-11
4.12995e-10
9.69138e-11
3.85193e-10
9.56374e-11
3.5783e-10
9.41284e-11
3.30971e-10
9.23792e-11
3.04686e-10
9.03824e-11
2.79047e-10
8.81309e-11
2.54126e-10
8.56193e-11
2.29995e-10
8.28422e-11
2.0673e-10
7.97938e-11
1.84406e-10
7.6471e-11
1.63097e-10
7.28742e-11
1.42875e-10
6.90036e-11
1.23815e-10
6.48601e-11
1.05985e-10
6.04496e-11
8.94511e-11
5.57849e-11
7.42711e-11
5.08827e-11
6.04987e-11
4.57665e-11
4.81766e-11
4.04704e-11
3.7334e-11
3.50412e-11
2.79841e-11
2.95411e-11
2.01212e-11
2.4053e-11
1.37158e-11
1.86885e-11
8.70691e-12
1.35928e-11
5.00163e-12
8.95356e-12
2.46876e-12
5.01218e-12
9.30746e-13
2.07552e-12
1.74307e-13
4.04715e-13
-2.72573e-13
-1.45634e-12
4.92544e-11
-4.62024e-12
4.80966e-11
-6.75509e-12
3.69517e-12
-6.02849e-12
-3.0327e-11
-1.84943e-12
-5.12639e-11
5.7325e-12
-6.36157e-11
1.63021e-11
-7.06242e-11
2.94347e-11
-7.45862e-11
4.47005e-11
-7.69864e-11
6.17478e-11
-7.87523e-11
8.03312e-11
-8.04273e-11
1.00275e-10
-8.23082e-11
1.21437e-10
-8.44921e-11
1.43727e-10
-8.70087e-11
1.67061e-10
-8.98064e-11
1.91391e-10
-9.28361e-11
2.16661e-10
-9.59966e-11
2.42831e-10
-9.92343e-11
2.69841e-10
-1.02459e-10
2.9765e-10
-1.05626e-10
3.26203e-10
-1.08675e-10
3.5545e-10
-1.11567e-10
3.85326e-10
-1.14274e-10
4.15782e-10
-1.16769e-10
4.46753e-10
-1.19037e-10
4.7818e-10
-1.21062e-10
5.10008e-10
-1.22841e-10
5.42168e-10
-1.24366e-10
5.74603e-10
-1.25641e-10
6.07254e-10
-1.26664e-10
6.40064e-10
-1.2744e-10
6.72969e-10
-1.27973e-10
7.05919e-10
-1.28271e-10
7.38854e-10
-1.28337e-10
7.71721e-10
-1.28184e-10
8.0447e-10
-1.27813e-10
8.37051e-10
-1.27234e-10
8.69414e-10
-1.26457e-10
9.01515e-10
-1.25489e-10
9.3331e-10
-1.24335e-10
9.64756e-10
-1.23011e-10
9.9581e-10
-1.21519e-10
1.02644e-09
-1.19867e-10
1.0566e-09
-1.18066e-10
1.08626e-09
-1.16121e-10
1.11539e-09
-1.14038e-10
1.14396e-09
-1.11828e-10
1.17193e-09
-1.09497e-10
1.19928e-09
-1.0705e-10
1.22599e-09
-1.04497e-10
1.25201e-09
-1.01844e-10
1.27734e-09
-9.90958e-11
1.30195e-09
-9.62587e-11
1.32582e-09
-9.33398e-11
1.34892e-09
-9.03413e-11
1.37124e-09
-8.72695e-11
1.39276e-09
-8.41294e-11
1.41347e-09
-8.09242e-11
1.43334e-09
-7.76584e-11
1.45237e-09
-7.43356e-11
1.47054e-09
-7.09592e-11
1.48783e-09
-6.75336e-11
1.50425e-09
-6.4062e-11
1.51977e-09
-6.05473e-11
1.53438e-09
-5.69924e-11
1.54808e-09
-5.33993e-11
1.56086e-09
-4.97716e-11
1.57271e-09
-4.61134e-11
1.58362e-09
-4.24267e-11
1.59359e-09
-3.87129e-11
1.6026e-09
-3.4975e-11
1.61067e-09
-3.12153e-11
1.61777e-09
-2.74347e-11
1.62391e-09
-2.36358e-11
1.62909e-09
-1.98221e-11
1.63329e-09
-1.5995e-11
1.63652e-09
-1.21549e-11
1.63877e-09
-8.3036e-12
1.64005e-09
-4.44381e-12
1.64035e-09
-5.78633e-13
1.63967e-09
3.29006e-12
1.63801e-09
7.16015e-12
1.63537e-09
1.10282e-11
1.63175e-09
1.48925e-11
1.62716e-09
1.87517e-11
1.62159e-09
2.26036e-11
1.61505e-09
2.64457e-11
1.60753e-09
3.0275e-11
1.59905e-09
3.40906e-11
1.58961e-09
3.78914e-11
1.57921e-09
4.16747e-11
1.56786e-09
4.54384e-11
1.55556e-09
4.91801e-11
1.54233e-09
5.28976e-11
1.52816e-09
5.65878e-11
1.51307e-09
6.02471e-11
1.49706e-09
6.38723e-11
1.48015e-09
6.74604e-11
1.46234e-09
7.1008e-11
1.44364e-09
7.45109e-11
1.42408e-09
7.7965e-11
1.40366e-09
8.13669e-11
1.38239e-09
8.47132e-11
1.3603e-09
8.79996e-11
1.33739e-09
9.12221e-11
1.3137e-09
9.43756e-11
1.28922e-09
9.74551e-11
1.264e-09
1.00456e-10
1.23804e-09
1.03373e-10
1.21138e-09
1.06199e-10
1.18403e-09
1.08928e-10
1.15603e-09
1.11554e-10
1.1274e-09
1.1407e-10
1.09817e-09
1.16471e-10
1.06837e-09
1.18748e-10
1.03804e-09
1.20894e-10
1.0072e-09
1.22903e-10
9.75906e-10
1.24766e-10
9.44185e-10
1.26476e-10
9.12081e-10
1.28024e-10
8.79636e-10
1.29402e-10
8.46896e-10
1.30601e-10
8.13908e-10
1.31613e-10
7.8072e-10
1.32428e-10
7.47387e-10
1.33036e-10
7.13961e-10
1.33427e-10
6.80498e-10
1.33593e-10
6.47058e-10
1.33524e-10
6.13701e-10
1.33209e-10
5.80492e-10
1.32637e-10
5.47495e-10
1.31798e-10
5.14778e-10
1.30682e-10
4.82412e-10
1.2928e-10
4.50469e-10
1.27581e-10
4.19021e-10
1.25576e-10
3.88147e-10
1.23253e-10
3.57924e-10
1.20606e-10
3.2843e-10
1.17625e-10
2.99746e-10
1.14303e-10
2.71956e-10
1.10632e-10
2.45141e-10
1.06608e-10
2.19382e-10
1.0223e-10
1.94763e-10
9.74933e-11
1.71365e-10
9.24009e-11
1.49267e-10
8.69581e-11
1.28543e-10
8.11737e-11
1.09264e-10
7.50634e-11
9.14942e-11
6.86513e-11
7.52905e-11
6.19702e-11
6.06972e-11
5.50635e-11
4.77475e-11
4.79899e-11
3.64597e-11
4.08286e-11
2.68287e-11
3.36831e-11
1.88293e-11
2.66873e-11
1.2409e-11
2.0012e-11
7.48636e-12
1.3875e-11
3.94533e-12
8.5525e-12
1.63234e-12
4.38735e-12
3.68765e-13
1.66845e-12
9.51304e-14
3.64381e-13
4.88926e-11
-1.67141e-13
4.86279e-11
-4.16989e-13
3.94517e-12
1.36241e-12
-3.21095e-11
6.08402e-12
-5.59851e-11
1.39897e-11
-7.15121e-11
2.49687e-11
-8.16043e-11
3.87217e-11
-8.83518e-11
5.49345e-11
-9.31978e-11
7.33091e-11
-9.71255e-11
9.35735e-11
-1.00698e-10
1.15516e-10
-1.04253e-10
1.3898e-10
-1.07956e-10
1.63827e-10
-1.11858e-10
1.89961e-10
-1.15944e-10
2.17285e-10
-1.20156e-10
2.45723e-10
-1.24439e-10
2.75207e-10
-1.28716e-10
3.05671e-10
-1.32921e-10
3.37042e-10
-1.37001e-10
3.69262e-10
-1.40893e-10
4.02257e-10
-1.44566e-10
4.35966e-10
-1.47985e-10
4.70321e-10
-1.51123e-10
5.05248e-10
-1.53965e-10
5.40683e-10
-1.56497e-10
5.76558e-10
-1.58714e-10
6.128e-10
-1.6061e-10
6.49347e-10
-1.62188e-10
6.86129e-10
-1.63445e-10
7.23078e-10
-1.64393e-10
7.60134e-10
-1.65029e-10
7.97232e-10
-1.65369e-10
8.3431e-10
-1.65416e-10
8.71307e-10
-1.65181e-10
9.0817e-10
-1.64674e-10
9.44839e-10
-1.63903e-10
9.81261e-10
-1.62881e-10
1.01739e-09
-1.61615e-10
1.05317e-09
-1.60118e-10
1.08855e-09
-1.58399e-10
1.1235e-09
-1.56467e-10
1.15797e-09
-1.54335e-10
1.19191e-09
-1.5201e-10
1.2253e-09
-1.49503e-10
1.25808e-09
-1.46823e-10
1.29023e-09
-1.4398e-10
1.32171e-09
-1.40981e-10
1.3525e-09
-1.37836e-10
1.38256e-09
-1.34554e-10
1.41186e-09
-1.31143e-10
1.44037e-09
-1.2761e-10
1.46808e-09
-1.23964e-10
1.49495e-09
-1.2021e-10
1.52096e-09
-1.16355e-10
1.54609e-09
-1.12405e-10
1.57033e-09
-1.08366e-10
1.59365e-09
-1.04244e-10
1.61604e-09
-1.00043e-10
1.63747e-09
-9.57701e-11
1.65794e-09
-9.14277e-11
1.67742e-09
-8.70205e-11
1.69592e-09
-8.25542e-11
1.7134e-09
-7.80334e-11
1.72987e-09
-7.34612e-11
1.74531e-09
-6.88409e-11
1.75972e-09
-6.41768e-11
1.77308e-09
-5.94724e-11
1.78538e-09
-5.47303e-11
1.79662e-09
-4.99547e-11
1.8068e-09
-4.51496e-11
1.8159e-09
-4.03167e-11
1.82392e-09
-3.54573e-11
1.83086e-09
-3.05749e-11
1.83671e-09
-2.56731e-11
1.84147e-09
-2.07535e-11
1.84513e-09
-1.58179e-11
1.8477e-09
-1.08704e-11
1.84916e-09
-5.91294e-12
1.84953e-09
-9.47129e-13
1.8488e-09
4.02375e-12
1.84696e-09
8.9959e-12
1.84402e-09
1.39654e-11
1.83999e-09
1.893e-11
1.83485e-09
2.38882e-11
1.82862e-09
2.88367e-11