/*--------------------------------*- C++ -*----------------------------------*\
  =========                 |
  \\      /  F ield         | OpenFOAM: The Open Source CFD Toolbox
   \\    /   O peration     | Website:  https://openfoam.org
    \\  /    A nd           | Version:  7
     \\/     M anipulation  |
\*---------------------------------------------------------------------------*/
FoamFile
{
    version     2.0;
    format      ascii;
    class       volVectorField;
    location    "0.15";
    object      U;
}
// * * * * * * * * * * * * * * * * * * * * * * * * * * * * * * * * * * * * * //

dimensions      [0 1 -1 0 0 0 0];

internalField   nonuniform List<vector> 
51200
(
(-4.51069e-07 1.90776e-07 0)
(-7.11942e-07 -3.88945e-07 0)
(-4.57803e-08 -9.53404e-07 0)
(1.36822e-06 -9.86e-07 0)
(2.7914e-06 -8.20265e-07 0)
(3.95272e-06 -6.34797e-07 0)
(4.8609e-06 -4.76348e-07 0)
(5.55086e-06 -3.49518e-07 0)
(6.07243e-06 -2.50624e-07 0)
(6.46442e-06 -1.76661e-07 0)
(6.75985e-06 -1.20056e-07 0)
(6.99131e-06 -8.01493e-08 0)
(7.1812e-06 -4.91896e-08 0)
(7.34132e-06 -3.10366e-08 0)
(7.49405e-06 -1.96147e-08 0)
(7.64832e-06 -1.61336e-08 0)
(7.80396e-06 -1.30464e-08 0)
(7.97946e-06 -1.45108e-08 0)
(8.16681e-06 -1.86267e-08 0)
(8.37413e-06 -2.34716e-08 0)
(8.6022e-06 -2.9477e-08 0)
(8.84742e-06 -3.5823e-08 0)
(9.114e-06 -4.11257e-08 0)
(9.3978e-06 -4.76772e-08 0)
(9.69947e-06 -5.45584e-08 0)
(1.00179e-05 -5.99794e-08 0)
(1.03502e-05 -6.55775e-08 0)
(1.06955e-05 -7.04305e-08 0)
(1.10535e-05 -7.43767e-08 0)
(1.14203e-05 -7.85389e-08 0)
(1.17964e-05 -8.26949e-08 0)
(1.21805e-05 -8.53208e-08 0)
(1.25692e-05 -8.81397e-08 0)
(1.29632e-05 -9.12413e-08 0)
(1.33617e-05 -9.28489e-08 0)
(1.37626e-05 -9.51002e-08 0)
(1.41652e-05 -9.74305e-08 0)
(1.45694e-05 -9.72891e-08 0)
(1.49721e-05 -9.74669e-08 0)
(1.53727e-05 -9.80748e-08 0)
(1.57723e-05 -9.76346e-08 0)
(1.61683e-05 -9.72617e-08 0)
(1.65606e-05 -9.79182e-08 0)
(1.69493e-05 -9.70132e-08 0)
(1.73331e-05 -9.51751e-08 0)
(1.77104e-05 -9.43091e-08 0)
(1.80809e-05 -9.26213e-08 0)
(1.84453e-05 -8.96586e-08 0)
(1.88006e-05 -8.74337e-08 0)
(1.91474e-05 -8.55932e-08 0)
(1.94869e-05 -8.25779e-08 0)
(1.98166e-05 -7.98647e-08 0)
(2.01363e-05 -7.82424e-08 0)
(2.0448e-05 -7.57032e-08 0)
(2.07498e-05 -7.26171e-08 0)
(2.10405e-05 -7.07707e-08 0)
(2.13217e-05 -6.93117e-08 0)
(2.15932e-05 -6.685e-08 0)
(2.18532e-05 -6.43442e-08 0)
(2.21017e-05 -6.20141e-08 0)
(2.23395e-05 -5.87664e-08 0)
(2.25658e-05 -5.51206e-08 0)
(2.27796e-05 -5.20285e-08 0)
(2.29817e-05 -4.88435e-08 0)
(2.31722e-05 -4.49169e-08 0)
(2.33503e-05 -4.0986e-08 0)
(2.35157e-05 -3.76988e-08 0)
(2.3669e-05 -3.50176e-08 0)
(2.381e-05 -3.27735e-08 0)
(2.39381e-05 -3.062e-08 0)
(2.40535e-05 -2.78739e-08 0)
(2.41561e-05 -2.37643e-08 0)
(2.42452e-05 -1.84573e-08 0)
(2.43205e-05 -1.32544e-08 0)
(2.43823e-05 -9.27783e-09 0)
(2.44304e-05 -6.56577e-09 0)
(2.44652e-05 -4.27559e-09 0)
(2.44863e-05 -1.41854e-09 0)
(2.44935e-05 2.51245e-09 0)
(2.44865e-05 7.37418e-09 0)
(2.44654e-05 1.24655e-08 0)
(2.44303e-05 1.69281e-08 0)
(2.43812e-05 2.04034e-08 0)
(2.43183e-05 2.34311e-08 0)
(2.42416e-05 2.68639e-08 0)
(2.41509e-05 3.08078e-08 0)
(2.40463e-05 3.48043e-08 0)
(2.3928e-05 3.87007e-08 0)
(2.37961e-05 4.25699e-08 0)
(2.36508e-05 4.64155e-08 0)
(2.34918e-05 5.02243e-08 0)
(2.3319e-05 5.38656e-08 0)
(2.31327e-05 5.75603e-08 0)
(2.29326e-05 6.15636e-08 0)
(2.27187e-05 6.55758e-08 0)
(2.24911e-05 6.94952e-08 0)
(2.225e-05 7.3318e-08 0)
(2.1996e-05 7.69847e-08 0)
(2.17288e-05 8.06914e-08 0)
(2.14486e-05 8.41854e-08 0)
(2.1156e-05 8.73594e-08 0)
(2.08509e-05 9.07034e-08 0)
(2.05339e-05 9.41395e-08 0)
(2.02051e-05 9.75004e-08 0)
(1.98641e-05 1.0088e-07 0)
(1.95115e-05 1.04058e-07 0)
(1.91475e-05 1.07228e-07 0)
(1.87717e-05 1.10626e-07 0)
(1.83849e-05 1.1378e-07 0)
(1.79872e-05 1.16697e-07 0)
(1.75789e-05 1.19753e-07 0)
(1.71606e-05 1.2269e-07 0)
(1.67327e-05 1.25381e-07 0)
(1.62953e-05 1.27954e-07 0)
(1.58492e-05 1.30256e-07 0)
(1.53951e-05 1.32475e-07 0)
(1.49328e-05 1.34909e-07 0)
(1.4463e-05 1.37146e-07 0)
(1.39863e-05 1.3895e-07 0)
(1.35031e-05 1.40679e-07 0)
(1.30142e-05 1.42336e-07 0)
(1.25204e-05 1.43742e-07 0)
(1.2022e-05 1.45065e-07 0)
(1.15195e-05 1.46203e-07 0)
(1.10142e-05 1.46967e-07 0)
(1.05066e-05 1.47647e-07 0)
(9.99732e-06 1.48248e-07 0)
(9.48766e-06 1.48376e-07 0)
(8.97831e-06 1.48148e-07 0)
(8.46996e-06 1.4787e-07 0)
(7.96384e-06 1.47362e-07 0)
(7.46093e-06 1.46469e-07 0)
(6.96209e-06 1.4528e-07 0)
(6.46878e-06 1.43665e-07 0)
(5.98239e-06 1.41544e-07 0)
(5.50388e-06 1.39189e-07 0)
(5.03447e-06 1.36551e-07 0)
(4.57585e-06 1.33261e-07 0)
(4.12949e-06 1.29378e-07 0)
(3.69683e-06 1.25132e-07 0)
(3.2796e-06 1.20493e-07 0)
(2.87928e-06 1.15357e-07 0)
(2.49712e-06 1.09773e-07 0)
(2.13465e-06 1.03746e-07 0)
(1.79382e-06 9.71425e-08 0)
(1.47639e-06 9.00009e-08 0)
(1.1839e-06 8.23275e-08 0)
(9.18189e-07 7.39996e-08 0)
(6.81056e-07 6.49961e-08 0)
(4.73941e-07 5.55107e-08 0)
(2.98095e-07 4.57312e-08 0)
(1.54889e-07 3.54538e-08 0)
(4.54742e-08 2.45641e-08 0)
(-2.98999e-08 1.33523e-08 0)
(-7.17875e-08 2.36889e-09 0)
(-8.2242e-08 -7.42019e-09 0)
(-6.67786e-08 -1.42429e-08 0)
(-3.53308e-08 -1.5145e-08 0)
(-9.33817e-09 -6.48467e-09 0)
(2.79835e-09 2.92521e-09 0)
(-1.18058e-06 1.14968e-06 0)
(-2.36008e-06 1.34368e-07 0)
(-2.31393e-06 -1.78257e-06 0)
(-8.55476e-07 -2.3837e-06 0)
(1.13445e-06 -2.23237e-06 0)
(3.08759e-06 -1.86975e-06 0)
(4.85137e-06 -1.48774e-06 0)
(6.38808e-06 -1.16204e-06 0)
(7.70274e-06 -8.98027e-07 0)
(8.84214e-06 -6.99125e-07 0)
(9.84561e-06 -5.5397e-07 0)
(1.07431e-05 -4.58696e-07 0)
(1.15745e-05 -3.92492e-07 0)
(1.23791e-05 -3.62392e-07 0)
(1.31672e-05 -3.51926e-07 0)
(1.39572e-05 -3.60798e-07 0)
(1.47725e-05 -3.7934e-07 0)
(1.56082e-05 -4.05008e-07 0)
(1.64823e-05 -4.38815e-07 0)
(1.73948e-05 -4.7186e-07 0)
(1.83437e-05 -5.10949e-07 0)
(1.93354e-05 -5.45505e-07 0)
(2.03642e-05 -5.80997e-07 0)
(2.14293e-05 -6.14279e-07 0)
(2.25314e-05 -6.44928e-07 0)
(2.36632e-05 -6.74047e-07 0)
(2.48246e-05 -7.00171e-07 0)
(2.60126e-05 -7.22932e-07 0)
(2.72209e-05 -7.42642e-07 0)
(2.84496e-05 -7.60881e-07 0)
(2.96948e-05 -7.74691e-07 0)
(3.09513e-05 -7.87741e-07 0)
(3.22179e-05 -7.97477e-07 0)
(3.34926e-05 -8.04975e-07 0)
(3.47702e-05 -8.11093e-07 0)
(3.60491e-05 -8.15276e-07 0)
(3.73289e-05 -8.1687e-07 0)
(3.86036e-05 -8.16182e-07 0)
(3.98717e-05 -8.13356e-07 0)
(4.11328e-05 -8.09171e-07 0)
(4.23825e-05 -8.027e-07 0)
(4.36195e-05 -7.96893e-07 0)
(4.48429e-05 -7.88707e-07 0)
(4.60501e-05 -7.78839e-07 0)
(4.72385e-05 -7.67485e-07 0)
(4.84079e-05 -7.5529e-07 0)
(4.95562e-05 -7.40477e-07 0)
(5.06801e-05 -7.25062e-07 0)
(5.17802e-05 -7.09453e-07 0)
(5.28553e-05 -6.91775e-07 0)
(5.39027e-05 -6.73515e-07 0)
(5.49226e-05 -6.55727e-07 0)
(5.59146e-05 -6.37008e-07 0)
(5.68767e-05 -6.17049e-07 0)
(5.78083e-05 -5.97203e-07 0)
(5.87094e-05 -5.77059e-07 0)
(5.9579e-05 -5.56057e-07 0)
(6.04159e-05 -5.34654e-07 0)
(6.12196e-05 -5.13208e-07 0)
(6.19896e-05 -4.90868e-07 0)
(6.2725e-05 -4.67419e-07 0)
(6.34254e-05 -4.43966e-07 0)
(6.40904e-05 -4.20522e-07 0)
(6.47194e-05 -3.96419e-07 0)
(6.53117e-05 -3.71789e-07 0)
(6.5867e-05 -3.46957e-07 0)
(6.63851e-05 -3.21811e-07 0)
(6.68657e-05 -2.96329e-07 0)
(6.73085e-05 -2.71149e-07 0)
(6.77131e-05 -2.46264e-07 0)
(6.80789e-05 -2.21109e-07 0)
(6.84054e-05 -1.95062e-07 0)
(6.86925e-05 -1.67802e-07 0)
(6.89401e-05 -1.39872e-07 0)
(6.91477e-05 -1.12129e-07 0)
(6.93155e-05 -8.49158e-08 0)
(6.94432e-05 -5.81129e-08 0)
(6.95306e-05 -3.14207e-08 0)
(6.9577e-05 -4.36907e-09 0)
(6.95825e-05 2.35783e-08 0)
(6.95472e-05 5.23653e-08 0)
(6.94712e-05 8.11002e-08 0)
(6.93544e-05 1.09073e-07 0)
(6.91967e-05 1.36492e-07 0)
(6.89985e-05 1.63774e-07 0)
(6.87597e-05 1.91108e-07 0)
(6.84802e-05 2.18399e-07 0)
(6.81601e-05 2.4568e-07 0)
(6.78e-05 2.73222e-07 0)
(6.73997e-05 3.00668e-07 0)
(6.69594e-05 3.27791e-07 0)
(6.64791e-05 3.54938e-07 0)
(6.59594e-05 3.82033e-07 0)
(6.54003e-05 4.09236e-07 0)
(6.48014e-05 4.36416e-07 0)
(6.41633e-05 4.63129e-07 0)
(6.34863e-05 4.89724e-07 0)
(6.27708e-05 5.16147e-07 0)
(6.20176e-05 5.4198e-07 0)
(6.1227e-05 5.67264e-07 0)
(6.03994e-05 5.91876e-07 0)
(5.95356e-05 6.16106e-07 0)
(5.86361e-05 6.40327e-07 0)
(5.77014e-05 6.6414e-07 0)
(5.67319e-05 6.87571e-07 0)
(5.57283e-05 7.10919e-07 0)
(5.46913e-05 7.33846e-07 0)
(5.36218e-05 7.56185e-07 0)
(5.25201e-05 7.77982e-07 0)
(5.13872e-05 7.99063e-07 0)
(5.02247e-05 8.19552e-07 0)
(4.90333e-05 8.39456e-07 0)
(4.78139e-05 8.58277e-07 0)
(4.65679e-05 8.75956e-07 0)
(4.52964e-05 8.92927e-07 0)
(4.40006e-05 9.0918e-07 0)
(4.26825e-05 9.24535e-07 0)
(4.1343e-05 9.38961e-07 0)
(3.99834e-05 9.52149e-07 0)
(3.8606e-05 9.63972e-07 0)
(3.72126e-05 9.74761e-07 0)
(3.58046e-05 9.84409e-07 0)
(3.43843e-05 9.92534e-07 0)
(3.29537e-05 9.99243e-07 0)
(3.15143e-05 1.00459e-06 0)
(3.00691e-05 1.00827e-06 0)
(2.86204e-05 1.01021e-06 0)
(2.71701e-05 1.01043e-06 0)
(2.57208e-05 1.00883e-06 0)
(2.42762e-05 1.00539e-06 0)
(2.28386e-05 1.00007e-06 0)
(2.14107e-05 9.9261e-07 0)
(1.99959e-05 9.82706e-07 0)
(1.85976e-05 9.70377e-07 0)
(1.72189e-05 9.55762e-07 0)
(1.58639e-05 9.38657e-07 0)
(1.45364e-05 9.18703e-07 0)
(1.32394e-05 8.95766e-07 0)
(1.19769e-05 8.69933e-07 0)
(1.0754e-05 8.41171e-07 0)
(9.57469e-06 8.09382e-07 0)
(8.44258e-06 7.74657e-07 0)
(7.36237e-06 7.36847e-07 0)
(6.33876e-06 6.95729e-07 0)
(5.37557e-06 6.51376e-07 0)
(4.47747e-06 6.03784e-07 0)
(3.64971e-06 5.52696e-07 0)
(2.89617e-06 4.97995e-07 0)
(2.22027e-06 4.40226e-07 0)
(1.62659e-06 3.79899e-07 0)
(1.11918e-06 3.17156e-07 0)
(6.99724e-07 2.52369e-07 0)
(3.69003e-07 1.86315e-07 0)
(1.27375e-07 1.20623e-07 0)
(-2.78858e-08 5.79758e-08 0)
(-1.04524e-07 2.80289e-09 0)
(-1.1585e-07 -3.78653e-08 0)
(-8.07349e-08 -5.36286e-08 0)
(-3.51984e-08 -3.5963e-08 0)
(-6.7035e-09 -9.22632e-09 0)
(-1.40622e-06 3.05266e-06 0)
(-3.2871e-06 1.6308e-06 0)
(-4.32653e-06 -2.13509e-06 0)
(-3.77584e-06 -3.83516e-06 0)
(-2.31815e-06 -4.12252e-06 0)
(-5.24428e-07 -3.82697e-06 0)
(1.36346e-06 -3.3477e-06 0)
(3.21181e-06 -2.85675e-06 0)
(4.97834e-06 -2.43401e-06 0)
(6.64969e-06 -2.09578e-06 0)
(8.23932e-06 -1.84989e-06 0)
(9.77758e-06 -1.67725e-06 0)
(1.12845e-05 -1.57597e-06 0)
(1.27797e-05 -1.52082e-06 0)
(1.42921e-05 -1.52033e-06 0)
(1.58285e-05 -1.54302e-06 0)
(1.74001e-05 -1.59304e-06 0)
(1.90197e-05 -1.65878e-06 0)
(2.06883e-05 -1.73085e-06 0)
(2.24095e-05 -1.81334e-06 0)
(2.41861e-05 -1.89481e-06 0)
(2.60148e-05 -1.97624e-06 0)
(2.78928e-05 -2.0559e-06 0)
(2.98215e-05 -2.12893e-06 0)
(3.17924e-05 -2.19833e-06 0)
(3.38041e-05 -2.26194e-06 0)
(3.58533e-05 -2.31722e-06 0)
(3.79332e-05 -2.36792e-06 0)
(4.00403e-05 -2.41139e-06 0)
(4.21709e-05 -2.44634e-06 0)
(4.43189e-05 -2.47728e-06 0)
(4.64809e-05 -2.50092e-06 0)
(4.86535e-05 -2.51782e-06 0)
(5.08296e-05 -2.53064e-06 0)
(5.30073e-05 -2.53739e-06 0)
(5.51831e-05 -2.53872e-06 0)
(5.73511e-05 -2.53506e-06 0)
(5.9509e-05 -2.52656e-06 0)
(6.16533e-05 -2.51171e-06 0)
(6.37804e-05 -2.49312e-06 0)
(6.58866e-05 -2.47143e-06 0)
(6.79698e-05 -2.44475e-06 0)
(7.0027e-05 -2.41522e-06 0)
(7.20535e-05 -2.38205e-06 0)
(7.40491e-05 -2.34462e-06 0)
(7.60109e-05 -2.30332e-06 0)
(7.79351e-05 -2.25972e-06 0)
(7.98207e-05 -2.2128e-06 0)
(8.16661e-05 -2.16287e-06 0)
(8.34677e-05 -2.11118e-06 0)
(8.52246e-05 -2.0571e-06 0)
(8.6936e-05 -2.00098e-06 0)
(8.85992e-05 -1.9437e-06 0)
(9.02129e-05 -1.88476e-06 0)
(9.17761e-05 -1.82367e-06 0)
(9.32868e-05 -1.76115e-06 0)
(9.47444e-05 -1.69732e-06 0)
(9.6148e-05 -1.63189e-06 0)
(9.74963e-05 -1.5651e-06 0)
(9.87879e-05 -1.49714e-06 0)
(0.000100022 -1.42785e-06 0)
(0.000101199 -1.35739e-06 0)
(0.000102316 -1.28616e-06 0)
(0.000103374 -1.21434e-06 0)
(0.000104372 -1.14171e-06 0)
(0.000105308 -1.06798e-06 0)
(0.000106182 -9.93266e-07 0)
(0.000106993 -9.17536e-07 0)
(0.000107742 -8.40871e-07 0)
(0.000108428 -7.63933e-07 0)
(0.00010905 -6.87002e-07 0)
(0.000109607 -6.09458e-07 0)
(0.000110101 -5.30829e-07 0)
(0.000110529 -4.51439e-07 0)
(0.000110891 -3.71451e-07 0)
(0.000111187 -2.9081e-07 0)
(0.000111418 -2.09865e-07 0)
(0.000111584 -1.29088e-07 0)
(0.000111682 -4.83896e-08 0)
(0.000111715 3.26994e-08 0)
(0.000111681 1.14347e-07 0)
(0.00011158 1.96219e-07 0)
(0.000111413 2.77875e-07 0)
(0.000111179 3.59374e-07 0)
(0.00011088 4.40749e-07 0)
(0.000110513 5.21623e-07 0)
(0.000110081 6.02081e-07 0)
(0.000109582 6.8234e-07 0)
(0.000109018 7.62451e-07 0)
(0.000108389 8.42466e-07 0)
(0.000107693 9.22064e-07 0)
(0.000106933 1.0015e-06 0)
(0.000106109 1.08103e-06 0)
(0.00010522 1.16008e-06 0)
(0.000104268 1.23853e-06 0)
(0.000103252 1.31635e-06 0)
(0.000102173 1.3933e-06 0)
(0.000101033 1.46968e-06 0)
(9.98299e-05 1.54516e-06 0)
(9.85666e-05 1.61922e-06 0)
(9.72431e-05 1.69217e-06 0)
(9.58604e-05 1.76396e-06 0)
(9.44197e-05 1.83455e-06 0)
(9.29211e-05 1.9043e-06 0)
(9.1366e-05 1.97296e-06 0)
(8.97563e-05 2.04038e-06 0)
(8.80922e-05 2.10677e-06 0)
(8.63753e-05 2.1715e-06 0)
(8.46073e-05 2.23417e-06 0)
(8.27889e-05 2.29522e-06 0)
(8.09224e-05 2.35441e-06 0)
(7.90097e-05 2.41125e-06 0)
(7.70516e-05 2.46584e-06 0)
(7.50504e-05 2.51778e-06 0)
(7.30086e-05 2.5669e-06 0)
(7.09278e-05 2.61379e-06 0)
(6.88105e-05 2.65809e-06 0)
(6.66596e-05 2.69898e-06 0)
(6.44768e-05 2.73664e-06 0)
(6.22651e-05 2.77102e-06 0)
(6.00283e-05 2.80156e-06 0)
(5.77683e-05 2.82844e-06 0)
(5.54882e-05 2.85165e-06 0)
(5.31921e-05 2.87044e-06 0)
(5.08833e-05 2.88478e-06 0)
(4.8565e-05 2.89479e-06 0)
(4.62413e-05 2.89976e-06 0)
(4.39163e-05 2.89936e-06 0)
(4.15936e-05 2.89397e-06 0)
(3.92784e-05 2.88328e-06 0)
(3.69758e-05 2.86656e-06 0)
(3.46895e-05 2.84358e-06 0)
(3.24245e-05 2.81419e-06 0)
(3.01868e-05 2.77795e-06 0)
(2.79817e-05 2.73476e-06 0)
(2.58143e-05 2.6846e-06 0)
(2.36909e-05 2.62678e-06 0)
(2.16176e-05 2.56062e-06 0)
(1.95999e-05 2.4863e-06 0)
(1.76445e-05 2.40397e-06 0)
(1.57586e-05 2.31318e-06 0)
(1.39483e-05 2.21366e-06 0)
(1.22198e-05 2.1055e-06 0)
(1.05807e-05 1.98851e-06 0)
(9.0382e-06 1.86237e-06 0)
(7.59851e-06 1.7272e-06 0)
(6.268e-06 1.58307e-06 0)
(5.05338e-06 1.4301e-06 0)
(3.9607e-06 1.26897e-06 0)
(2.99531e-06 1.1009e-06 0)
(2.16191e-06 9.271e-07 0)
(1.46362e-06 7.49116e-07 0)
(9.01075e-07 5.69703e-07 0)
(4.7248e-07 3.93353e-07 0)
(1.7289e-07 2.26812e-07 0)
(-7.69843e-09 7.99584e-08 0)
(-8.66401e-08 -3.30814e-08 0)
(-8.80406e-08 -9.1963e-08 0)
(-5.11595e-08 -8.05857e-08 0)
(-1.50513e-08 -3.45097e-08 0)
(-1.13681e-06 5.03277e-06 0)
(-2.91582e-06 3.63965e-06 0)
(-4.31716e-06 -1.62364e-06 0)
(-4.41223e-06 -4.5397e-06 0)
(-3.51695e-06 -5.55296e-06 0)
(-2.06996e-06 -5.62174e-06 0)
(-3.05739e-07 -5.28232e-06 0)
(1.61582e-06 -4.8178e-06 0)
(3.59662e-06 -4.36696e-06 0)
(5.60682e-06 -3.98836e-06 0)
(7.63516e-06 -3.70735e-06 0)
(9.66977e-06 -3.5206e-06 0)
(1.17292e-05 -3.41603e-06 0)
(1.38277e-05 -3.38595e-06 0)
(1.59689e-05 -3.40674e-06 0)
(1.81697e-05 -3.47845e-06 0)
(2.04331e-05 -3.57642e-06 0)
(2.27641e-05 -3.69933e-06 0)
(2.51654e-05 -3.83325e-06 0)
(2.76371e-05 -3.97453e-06 0)
(3.01794e-05 -4.11519e-06 0)
(3.27885e-05 -4.25652e-06 0)
(3.54626e-05 -4.3889e-06 0)
(3.81957e-05 -4.51406e-06 0)
(4.09829e-05 -4.63106e-06 0)
(4.3821e-05 -4.73421e-06 0)
(4.6702e-05 -4.82882e-06 0)
(4.96208e-05 -4.91087e-06 0)
(5.25738e-05 -4.98012e-06 0)
(5.55519e-05 -5.03846e-06 0)
(5.85503e-05 -5.08544e-06 0)
(6.15656e-05 -5.1196e-06 0)
(6.45885e-05 -5.14457e-06 0)
(6.76163e-05 -5.15872e-06 0)
(7.06429e-05 -5.16236e-06 0)
(7.36615e-05 -5.15617e-06 0)
(7.66694e-05 -5.14178e-06 0)
(7.96608e-05 -5.11617e-06 0)
(8.26314e-05 -5.08259e-06 0)
(8.55759e-05 -5.041e-06 0)
(8.84917e-05 -4.99138e-06 0)
(9.1374e-05 -4.93387e-06 0)
(9.42177e-05 -4.87103e-06 0)
(9.7021e-05 -4.79987e-06 0)
(9.97797e-05 -4.72216e-06 0)
(0.00010249 -4.63862e-06 0)
(0.00010515 -4.54885e-06 0)
(0.000107756 -4.45354e-06 0)
(0.000110306 -4.35372e-06 0)
(0.000112797 -4.24936e-06 0)
(0.000115226 -4.14029e-06 0)
(0.000117591 -4.02772e-06 0)
(0.00011989 -3.91184e-06 0)
(0.000122122 -3.79259e-06 0)
(0.000124283 -3.67035e-06 0)
(0.000126373 -3.54516e-06 0)
(0.000128389 -3.41669e-06 0)
(0.00013033 -3.28548e-06 0)
(0.000132195 -3.15192e-06 0)
(0.000133982 -3.01586e-06 0)
(0.000135691 -2.87732e-06 0)
(0.000137319 -2.73671e-06 0)
(0.000138866 -2.59421e-06 0)
(0.000140331 -2.44981e-06 0)
(0.000141713 -2.30395e-06 0)
(0.000143011 -2.15701e-06 0)
(0.000144224 -2.00866e-06 0)
(0.000145351 -1.8584e-06 0)
(0.000146391 -1.70633e-06 0)
(0.000147344 -1.55303e-06 0)
(0.000148209 -1.39862e-06 0)
(0.000148986 -1.24323e-06 0)
(0.000149675 -1.08717e-06 0)
(0.000150275 -9.30636e-07 0)
(0.000150786 -7.73158e-07 0)
(0.000151206 -6.14311e-07 0)
(0.000151536 -4.54586e-07 0)
(0.000151775 -2.9453e-07 0)
(0.000151924 -1.34164e-07 0)
(0.000151982 2.64878e-08 0)
(0.00015195 1.87194e-07 0)
(0.000151826 3.47917e-07 0)
(0.000151612 5.08747e-07 0)
(0.000151307 6.69522e-07 0)
(0.000150911 8.29966e-07 0)
(0.000150424 9.89782e-07 0)
(0.000149846 1.14916e-06 0)
(0.000149179 1.30829e-06 0)
(0.000148421 1.46676e-06 0)
(0.000147574 1.62451e-06 0)
(0.000146638 1.78166e-06 0)
(0.000145613 1.9382e-06 0)
(0.0001445 2.09438e-06 0)
(0.000143299 2.2498e-06 0)
(0.000142012 2.4039e-06 0)
(0.000140637 2.55684e-06 0)
(0.000139178 2.70841e-06 0)
(0.000137633 2.8583e-06 0)
(0.000136004 3.00653e-06 0)
(0.000134293 3.1527e-06 0)
(0.000132499 3.29675e-06 0)
(0.000130624 3.43884e-06 0)
(0.00012867 3.57848e-06 0)
(0.000126638 3.71563e-06 0)
(0.000124529 3.85072e-06 0)
(0.000122345 3.98331e-06 0)
(0.000120087 4.11297e-06 0)
(0.000117757 4.23962e-06 0)
(0.000115358 4.36266e-06 0)
(0.000112891 4.48195e-06 0)
(0.000110358 4.5977e-06 0)
(0.000107763 4.70905e-06 0)
(0.000105106 4.81548e-06 0)
(0.000102391 4.91729e-06 0)
(9.96207e-05 5.01409e-06 0)
(9.67982e-05 5.10539e-06 0)
(9.39262e-05 5.19129e-06 0)
(9.10082e-05 5.27117e-06 0)
(8.80481e-05 5.34432e-06 0)
(8.50492e-05 5.41092e-06 0)
(8.20156e-05 5.47062e-06 0)
(7.89514e-05 5.52251e-06 0)
(7.58607e-05 5.56657e-06 0)
(7.27482e-05 5.6028e-06 0)
(6.9619e-05 5.63031e-06 0)
(6.64778e-05 5.64852e-06 0)
(6.33294e-05 5.65727e-06 0)
(6.01795e-05 5.65599e-06 0)
(5.70342e-05 5.6442e-06 0)
(5.38995e-05 5.62179e-06 0)
(5.07814e-05 5.58813e-06 0)
(4.76863e-05 5.54212e-06 0)
(4.4621e-05 5.48334e-06 0)
(4.15926e-05 5.41182e-06 0)
(3.86083e-05 5.32694e-06 0)
(3.56759e-05 5.2279e-06 0)
(3.28026e-05 5.11429e-06 0)
(2.99963e-05 4.98561e-06 0)
(2.72655e-05 4.84127e-06 0)
(2.46189e-05 4.68107e-06 0)
(2.20646e-05 4.50489e-06 0)
(1.96108e-05 4.31219e-06 0)
(1.72672e-05 4.10264e-06 0)
(1.50427e-05 3.87638e-06 0)
(1.29456e-05 3.63338e-06 0)
(1.09846e-05 3.37342e-06 0)
(9.16844e-06 3.09675e-06 0)
(7.50451e-06 2.80435e-06 0)
(5.99985e-06 2.49765e-06 0)
(4.66177e-06 2.17845e-06 0)
(3.49575e-06 1.84932e-06 0)
(2.50407e-06 1.51396e-06 0)
(1.68705e-06 1.17781e-06 0)
(1.04306e-06 8.48884e-07 0)
(5.65737e-07 5.38734e-07 0)
(2.42172e-07 2.63271e-07 0)
(5.35389e-08 4.41379e-08 0)
(-2.49346e-08 -8.94423e-08 0)
(-3.35641e-08 -1.12513e-07 0)
(-1.38792e-08 -6.39625e-08 0)
(-7.47875e-07 6.53904e-06 0)
(-2.04025e-06 5.50779e-06 0)
(-3.31216e-06 -7.47763e-07 0)
(-3.66328e-06 -4.69708e-06 0)
(-3.12517e-06 -6.48499e-06 0)
(-1.96475e-06 -7.07581e-06 0)
(-3.6002e-07 -7.05802e-06 0)
(1.53979e-06 -6.78687e-06 0)
(3.64703e-06 -6.44958e-06 0)
(5.88868e-06 -6.1461e-06 0)
(8.23058e-06 -5.92202e-06 0)
(1.06719e-05 -5.79141e-06 0)
(1.31943e-05 -5.74584e-06 0)
(1.58021e-05 -5.77874e-06 0)
(1.85001e-05 -5.87583e-06 0)
(2.1286e-05 -6.01894e-06 0)
(2.41664e-05 -6.19968e-06 0)
(2.71399e-05 -6.40221e-06 0)
(3.02074e-05 -6.6196e-06 0)
(3.33649e-05 -6.83944e-06 0)
(3.66092e-05 -7.05922e-06 0)
(3.9937e-05 -7.27145e-06 0)
(4.3344e-05 -7.47279e-06 0)
(4.68213e-05 -7.66303e-06 0)
(5.03663e-05 -7.83484e-06 0)
(5.39692e-05 -7.99146e-06 0)
(5.76234e-05 -8.13044e-06 0)
(6.13253e-05 -8.25015e-06 0)
(6.50634e-05 -8.35247e-06 0)
(6.88318e-05 -8.43644e-06 0)
(7.26258e-05 -8.50168e-06 0)
(7.64353e-05 -8.54955e-06 0)
(8.02547e-05 -8.58117e-06 0)
(8.40778e-05 -8.59479e-06 0)
(8.78975e-05 -8.59367e-06 0)
(9.17064e-05 -8.57699e-06 0)
(9.55001e-05 -8.54454e-06 0)
(9.9273e-05 -8.49813e-06 0)
(0.000103017 -8.43801e-06 0)
(0.000106729 -8.36481e-06 0)
(0.000110404 -8.27857e-06 0)
(0.000114035 -8.18176e-06 0)
(0.000117619 -8.07298e-06 0)
(0.000121152 -7.95332e-06 0)
(0.000124627 -7.82375e-06 0)
(0.000128043 -7.68405e-06 0)
(0.000131394 -7.5348e-06 0)
(0.000134677 -7.37735e-06 0)
(0.00013789 -7.21198e-06 0)
(0.000141029 -7.03897e-06 0)
(0.000144091 -6.85934e-06 0)
(0.000147072 -6.67333e-06 0)
(0.00014997 -6.48116e-06 0)
(0.000152783 -6.28353e-06 0)
(0.000155508 -6.08102e-06 0)
(0.000158142 -5.8735e-06 0)
(0.000160685 -5.66128e-06 0)
(0.000163133 -5.44472e-06 0)
(0.000165486 -5.22388e-06 0)
(0.00016774 -4.99905e-06 0)
(0.000169896 -4.77076e-06 0)
(0.000171951 -4.53913e-06 0)
(0.000173904 -4.3041e-06 0)
(0.000175753 -4.06581e-06 0)
(0.000177497 -3.82477e-06 0)
(0.000179136 -3.58141e-06 0)
(0.000180667 -3.33583e-06 0)
(0.000182092 -3.08825e-06 0)
(0.000183408 -2.83885e-06 0)
(0.000184613 -2.58738e-06 0)
(0.000185709 -2.33344e-06 0)
(0.000186694 -2.07746e-06 0)
(0.000187567 -1.82023e-06 0)
(0.000188328 -1.562e-06 0)
(0.000188977 -1.30278e-06 0)
(0.000189514 -1.04263e-06 0)
(0.000189938 -7.81593e-07 0)
(0.000190247 -5.19467e-07 0)
(0.000190443 -2.56223e-07 0)
(0.000190525 7.52648e-09 0)
(0.000190493 2.71227e-07 0)
(0.000190347 5.34882e-07 0)
(0.000190087 7.98563e-07 0)
(0.000189713 1.06195e-06 0)
(0.000189225 1.32478e-06 0)
(0.000188623 1.58698e-06 0)
(0.000187908 1.84854e-06 0)
(0.00018708 2.10958e-06 0)
(0.000186138 2.36967e-06 0)
(0.000185085 2.62844e-06 0)
(0.000183919 2.88625e-06 0)
(0.000182643 3.143e-06 0)
(0.000181255 3.39838e-06 0)
(0.000179758 3.65232e-06 0)
(0.000178152 3.90447e-06 0)
(0.000176437 4.15467e-06 0)
(0.000174615 4.40274e-06 0)
(0.000172687 4.64799e-06 0)
(0.000170654 4.89032e-06 0)
(0.000168517 5.1298e-06 0)
(0.000166277 5.36591e-06 0)
(0.000163936 5.59846e-06 0)
(0.000161495 5.82738e-06 0)
(0.000158956 6.05217e-06 0)
(0.000156322 6.27291e-06 0)
(0.000153594 6.48952e-06 0)
(0.000150773 6.70106e-06 0)
(0.000147863 6.90723e-06 0)
(0.000144866 7.10806e-06 0)
(0.000141785 7.30277e-06 0)
(0.000138622 7.49092e-06 0)
(0.00013538 7.67225e-06 0)
(0.000132062 7.84586e-06 0)
(0.000128672 8.01144e-06 0)
(0.000125212 8.16908e-06 0)
(0.000121688 8.31785e-06 0)
(0.000118102 8.45693e-06 0)
(0.00011446 8.58632e-06 0)
(0.000110765 8.70539e-06 0)
(0.000107022 8.81317e-06 0)
(0.000103236 8.90939e-06 0)
(9.94119e-05 8.99349e-06 0)
(9.55555e-05 9.06455e-06 0)
(9.16727e-05 9.12218e-06 0)
(8.77689e-05 9.16598e-06 0)
(8.38502e-05 9.1948e-06 0)
(7.99237e-05 9.20771e-06 0)
(7.59958e-05 9.20443e-06 0)
(7.20736e-05 9.18439e-06 0)
(6.81653e-05 9.1465e-06 0)
(6.42781e-05 9.08992e-06 0)
(6.04193e-05 9.01401e-06 0)
(5.65979e-05 8.91776e-06 0)
(5.28232e-05 8.80042e-06 0)
(4.91032e-05 8.66153e-06 0)
(4.54468e-05 8.50018e-06 0)
(4.18642e-05 8.31526e-06 0)
(3.83648e-05 8.10623e-06 0)
(3.49582e-05 7.87274e-06 0)
(3.16549e-05 7.61398e-06 0)
(2.84656e-05 7.32922e-06 0)
(2.53998e-05 7.01827e-06 0)
(2.24682e-05 6.68104e-06 0)
(1.96822e-05 6.31732e-06 0)
(1.70521e-05 5.92708e-06 0)
(1.4587e-05 5.51066e-06 0)
(1.2297e-05 5.06877e-06 0)
(1.01916e-05 4.60279e-06 0)
(8.27898e-06 4.11517e-06 0)
(6.56606e-06 3.6091e-06 0)
(5.05861e-06 3.08875e-06 0)
(3.76007e-06 2.56007e-06 0)
(2.67069e-06 2.03175e-06 0)
(1.78763e-06 1.51572e-06 0)
(1.10397e-06 1.02839e-06 0)
(6.07073e-07 5.91327e-07 0)
(2.77395e-07 2.33854e-07 0)
(9.00152e-08 -6.27582e-09 0)
(7.49706e-09 -9.65423e-08 0)
(-7.26502e-09 -7.67415e-08 0)
(-4.16304e-07 7.43263e-06 0)
(-1.17549e-06 6.80909e-06 0)
(-2.09458e-06 -2.86486e-09 0)
(-2.43515e-06 -4.71383e-06 0)
(-2.0455e-06 -7.21182e-06 0)
(-1.05066e-06 -8.36328e-06 0)
(4.47108e-07 -8.77194e-06 0)
(2.33617e-06 -8.80402e-06 0)
(4.52296e-06 -8.69144e-06 0)
(6.94638e-06 -8.56166e-06 0)
(9.56447e-06 -8.47556e-06 0)
(1.23422e-05 -8.46512e-06 0)
(1.52684e-05 -8.53765e-06 0)
(1.83308e-05 -8.6786e-06 0)
(2.15241e-05 -8.88793e-06 0)
(2.48465e-05 -9.13795e-06 0)
(2.82907e-05 -9.42762e-06 0)
(3.18557e-05 -9.73464e-06 0)
(3.55377e-05 -1.00539e-05 0)
(3.93305e-05 -1.03742e-05 0)
(4.32281e-05 -1.06872e-05 0)
(4.72261e-05 -1.09873e-05 0)
(5.13142e-05 -1.12717e-05 0)
(5.54891e-05 -1.15348e-05 0)
(5.97409e-05 -1.17754e-05 0)
(6.40597e-05 -1.19927e-05 0)
(6.84406e-05 -1.21829e-05 0)
(7.28722e-05 -1.23477e-05 0)
(7.73482e-05 -1.24874e-05 0)
(8.18596e-05 -1.25999e-05 0)
(8.6397e-05 -1.26862e-05 0)
(9.09533e-05 -1.27498e-05 0)
(9.55202e-05 -1.2786e-05 0)
(0.00010009 -1.28e-05 0)
(0.000104654 -1.27911e-05 0)
(0.000109206 -1.27595e-05 0)
(0.000113739 -1.2706e-05 0)
(0.000118245 -1.26332e-05 0)
(0.000122718 -1.25393e-05 0)
(0.000127152 -1.24267e-05 0)
(0.00013154 -1.2297e-05 0)
(0.000135877 -1.21498e-05 0)
(0.000140157 -1.19857e-05 0)
(0.000144375 -1.18073e-05 0)
(0.000148526 -1.16132e-05 0)
(0.000152605 -1.14052e-05 0)
(0.000156608 -1.11843e-05 0)
(0.000160529 -1.09503e-05 0)
(0.000164367 -1.0705e-05 0)
(0.000168117 -1.04491e-05 0)
(0.000171774 -1.0183e-05 0)
(0.000175336 -9.90735e-06 0)
(0.000178799 -9.62299e-06 0)
(0.00018216 -9.33026e-06 0)
(0.000185417 -9.02972e-06 0)
(0.000188566 -8.7218e-06 0)
(0.000191605 -8.40719e-06 0)
(0.000194532 -8.08613e-06 0)
(0.000197344 -7.75874e-06 0)
(0.00020004 -7.42564e-06 0)
(0.000202618 -7.08736e-06 0)
(0.000205075 -6.74415e-06 0)
(0.000207411 -6.39628e-06 0)
(0.000209624 -6.04415e-06 0)
(0.000211711 -5.68793e-06 0)
(0.000213672 -5.32756e-06 0)
(0.000215505 -4.96342e-06 0)
(0.00021721 -4.59629e-06 0)
(0.000218785 -4.22665e-06 0)
(0.00022023 -3.85441e-06 0)
(0.000221543 -3.47951e-06 0)
(0.000222724 -3.10221e-06 0)
(0.000223772 -2.72268e-06 0)
(0.000224687 -2.3409e-06 0)
(0.000225468 -1.95737e-06 0)
(0.000226114 -1.57273e-06 0)
(0.000226625 -1.18716e-06 0)
(0.000227001 -8.0039e-07 0)
(0.000227242 -4.12425e-07 0)
(0.000227346 -2.37497e-08 0)
(0.000227315 3.65226e-07 0)
(0.000227147 7.54421e-07 0)
(0.000226844 1.14361e-06 0)
(0.000226405 1.53224e-06 0)
(0.00022583 1.91999e-06 0)
(0.000225119 2.30706e-06 0)
(0.000224273 2.69324e-06 0)
(0.000223293 3.07818e-06 0)
(0.000222177 3.4618e-06 0)
(0.000220928 3.84383e-06 0)
(0.000219545 4.22426e-06 0)
(0.00021803 4.60299e-06 0)
(0.000216383 4.97942e-06 0)
(0.000214605 5.35345e-06 0)
(0.000212697 5.72496e-06 0)
(0.00021066 6.09346e-06 0)
(0.000208496 6.45869e-06 0)
(0.000206205 6.82015e-06 0)
(0.000203788 7.17727e-06 0)
(0.000201248 7.53006e-06 0)
(0.000198586 7.87814e-06 0)
(0.000195804 8.22072e-06 0)
(0.000192903 8.55777e-06 0)
(0.000189885 8.88916e-06 0)
(0.000186754 9.21416e-06 0)
(0.000183511 9.53245e-06 0)
(0.000180158 9.84353e-06 0)
(0.0001767 1.01465e-05 0)
(0.000173138 1.04413e-05 0)
(0.000169475 1.07274e-05 0)
(0.000165716 1.10035e-05 0)
(0.000161864 1.12692e-05 0)
(0.000157921 1.15241e-05 0)
(0.000153892 1.17673e-05 0)
(0.000149783 1.1998e-05 0)
(0.000145596 1.22159e-05 0)
(0.000141336 1.24198e-05 0)
(0.00013701 1.26089e-05 0)
(0.000132621 1.27828e-05 0)
(0.000128176 1.29405e-05 0)
(0.00012368 1.30808e-05 0)
(0.000119139 1.32031e-05 0)
(0.00011456 1.33067e-05 0)
(0.00010995 1.33904e-05 0)
(0.000105316 1.34531e-05 0)
(0.000100664 1.34941e-05 0)
(9.60027e-05 1.35121e-05 0)
(9.13408e-05 1.35061e-05 0)
(8.66861e-05 1.34753e-05 0)
(8.20473e-05 1.34186e-05 0)
(7.74338e-05 1.33345e-05 0)
(7.28546e-05 1.32218e-05 0)
(6.83195e-05 1.30799e-05 0)
(6.38389e-05 1.29077e-05 0)
(5.94232e-05 1.27038e-05 0)
(5.50827e-05 1.24671e-05 0)
(5.08282e-05 1.21968e-05 0)
(4.66714e-05 1.18918e-05 0)
(4.26238e-05 1.15513e-05 0)
(3.86968e-05 1.11745e-05 0)
(3.49021e-05 1.07607e-05 0)
(3.12517e-05 1.03093e-05 0)
(2.77581e-05 9.82019e-06 0)
(2.44331e-05 9.29358e-06 0)
(2.12878e-05 8.72951e-06 0)
(1.83339e-05 8.12852e-06 0)
(1.55822e-05 7.49212e-06 0)
(1.30428e-05 6.82266e-06 0)
(1.07245e-05 6.12346e-06 0)
(8.63542e-06 5.39907e-06 0)
(6.78164e-06 4.65579e-06 0)
(5.16616e-06 3.90229e-06 0)
(3.78954e-06 3.15032e-06 0)
(2.64991e-06 2.41578e-06 0)
(1.74019e-06 1.71972e-06 0)
(1.04752e-06 1.08968e-06 0)
(5.53894e-07 5.61168e-07 0)
(2.36162e-07 1.80082e-07 0)
(6.13999e-08 -1.43955e-08 0)
(1.82973e-09 -6.40998e-08 0)
(-1.71109e-07 7.84492e-06 0)
(-4.7986e-07 7.55729e-06 0)
(-9.88273e-07 4.96534e-07 0)
(-1.16583e-06 -4.76122e-06 0)
(-7.70272e-07 -7.85553e-06 0)
(1.84499e-07 -9.56862e-06 0)
(1.65277e-06 -1.04457e-05 0)
(3.56541e-06 -1.0865e-05 0)
(5.85264e-06 -1.10632e-05 0)
(8.45121e-06 -1.11842e-05 0)
(1.1308e-05 -1.13166e-05 0)
(1.43966e-05 -1.1493e-05 0)
(1.76915e-05 -1.17309e-05 0)
(2.11687e-05 -1.20362e-05 0)
(2.48231e-05 -1.23867e-05 0)
(2.86384e-05 -1.27866e-05 0)
(3.26069e-05 -1.32079e-05 0)
(3.67254e-05 -1.36482e-05 0)
(4.09803e-05 -1.40921e-05 0)
(4.53688e-05 -1.45296e-05 0)
(4.98806e-05 -1.49541e-05 0)
(5.45056e-05 -1.53581e-05 0)
(5.92384e-05 -1.57375e-05 0)
(6.40672e-05 -1.60867e-05 0)
(6.89832e-05 -1.64063e-05 0)
(7.39781e-05 -1.66915e-05 0)
(7.90407e-05 -1.69417e-05 0)
(8.41618e-05 -1.71589e-05 0)
(8.93317e-05 -1.73384e-05 0)
(9.4542e-05 -1.74842e-05 0)
(9.978e-05 -1.75958e-05 0)
(0.00010504 -1.76726e-05 0)
(0.000110311 -1.77166e-05 0)
(0.000115583 -1.77291e-05 0)
(0.00012085 -1.77101e-05 0)
(0.000126101 -1.76606e-05 0)
(0.000131329 -1.75831e-05 0)
(0.000136527 -1.7477e-05 0)
(0.000141686 -1.73443e-05 0)
(0.000146799 -1.71862e-05 0)
(0.00015186 -1.7004e-05 0)
(0.000156862 -1.67981e-05 0)
(0.000161798 -1.65706e-05 0)
(0.000166662 -1.63218e-05 0)
(0.00017145 -1.6053e-05 0)
(0.000176154 -1.57652e-05 0)
(0.000180772 -1.54597e-05 0)
(0.000185296 -1.51371e-05 0)
(0.000189723 -1.47985e-05 0)
(0.000194048 -1.44453e-05 0)
(0.000198267 -1.4078e-05 0)
(0.000202377 -1.36977e-05 0)
(0.000206373 -1.33052e-05 0)
(0.000210251 -1.29014e-05 0)
(0.00021401 -1.24865e-05 0)
(0.000217644 -1.20616e-05 0)
(0.000221152 -1.16273e-05 0)
(0.000224531 -1.11839e-05 0)
(0.000227778 -1.07321e-05 0)
(0.000230891 -1.02726e-05 0)
(0.000233867 -9.80548e-06 0)
(0.000236705 -9.33133e-06 0)
(0.000239402 -8.85089e-06 0)
(0.000241957 -8.36479e-06 0)
(0.000244368 -7.87329e-06 0)
(0.000246634 -7.37646e-06 0)
(0.000248753 -6.8747e-06 0)
(0.000250723 -6.36848e-06 0)
(0.000252544 -5.8581e-06 0)
(0.000254214 -5.34394e-06 0)
(0.000255733 -4.82664e-06 0)
(0.0002571 -4.30663e-06 0)