/*--------------------------------*- C++ -*----------------------------------*\
  =========                 |
  \\      /  F ield         | OpenFOAM: The Open Source CFD Toolbox
   \\    /   O peration     | Website:  https://openfoam.org
    \\  /    A nd           | Version:  7
     \\/     M anipulation  |
\*---------------------------------------------------------------------------*/
FoamFile
{
    version     2.0;
    format      ascii;
    class       surfaceScalarField;
    location    "0.025";
    object      phi;
}
// * * * * * * * * * * * * * * * * * * * * * * * * * * * * * * * * * * * * * //

dimensions      [0 3 -1 0 0 0 0];

internalField   nonuniform List<scalar> 
101920
(
1.07127e-10
-1.07178e-10
1.7876e-09
-1.68047e-09
5.91852e-09
-4.13092e-09
1.15584e-08
-5.63987e-09
1.77285e-08
-6.17014e-09
2.37921e-08
-6.06352e-09
2.93192e-08
-5.5271e-09
3.40588e-08
-4.73967e-09
3.78875e-08
-3.82866e-09
4.07828e-08
-2.89526e-09
4.27595e-08
-1.97675e-09
4.38889e-08
-1.12942e-09
4.42518e-08
-3.62894e-10
4.39582e-08
2.93669e-10
4.30987e-08
8.59412e-10
4.1775e-08
1.32378e-09
4.00917e-08
1.68326e-09
3.81184e-08
1.9733e-09
3.59428e-08
2.17556e-09
3.36403e-08
2.30257e-09
3.12789e-08
2.36142e-09
2.8881e-08
2.3979e-09
2.65094e-08
2.37154e-09
2.4203e-08
2.30644e-09
2.19992e-08
2.20382e-09
1.99036e-08
2.09555e-09
1.79325e-08
1.97112e-09
1.60989e-08
1.8336e-09
1.44281e-08
1.67082e-09
1.29177e-08
1.51037e-09
1.15607e-08
1.35704e-09
1.03594e-08
1.20131e-09
9.30462e-09
1.05474e-09
8.41336e-09
8.91273e-10
7.65056e-09
7.62799e-10
7.03673e-09
6.13826e-10
6.54464e-09
4.92082e-10
6.18844e-09
3.56199e-10
5.93489e-09
2.53555e-10
5.78417e-09
1.50721e-10
5.71173e-09
7.24371e-11
5.71303e-09
-1.29862e-12
5.77513e-09
-6.21051e-11
5.88224e-09
-1.07118e-10
6.02908e-09
-1.46839e-10
6.20835e-09
-1.79271e-10
6.39976e-09
-1.91419e-10
6.58683e-09
-1.87065e-10
6.76797e-09
-1.8115e-10
6.93713e-09
-1.69157e-10
7.08568e-09
-1.48545e-10
7.20968e-09
-1.23998e-10
7.30317e-09
-9.34961e-11
7.36221e-09
-5.90386e-11
7.39022e-09
-2.80039e-11
7.3857e-09
4.51889e-12
7.34479e-09
4.09154e-11
7.27149e-09
7.33092e-11
7.16742e-09
1.04076e-10
7.03119e-09
1.36233e-10
6.87073e-09
1.60458e-10
6.70189e-09
1.6885e-10
6.53421e-09
1.67674e-10
6.36838e-09
1.65843e-10
6.20512e-09
1.63265e-10
6.0459e-09
1.59214e-10
5.88809e-09
1.57812e-10
5.72968e-09
1.58402e-10
5.57719e-09
1.52492e-10
5.43838e-09
1.38805e-10
5.3143e-09
1.24088e-10
5.20227e-09
1.12027e-10
5.10187e-09
1.00398e-10
5.01379e-09
8.80768e-11
4.93605e-09
7.77458e-11
4.86831e-09
6.77433e-11
4.81229e-09
5.60171e-11
4.76742e-09
4.48738e-11
4.73027e-09
3.71563e-11
4.6976e-09
3.26655e-11
4.67007e-09
2.75299e-11
4.65081e-09
1.92576e-11
4.64063e-09
1.01745e-11
4.63823e-09
2.3999e-12
4.64427e-09
-6.03218e-12
4.6605e-09
-1.62361e-11
4.68503e-09
-2.45268e-11
4.71376e-09
-2.87212e-11
4.74568e-09
-3.19219e-11
4.78194e-09
-3.6258e-11
4.82195e-09
-4.00131e-11
4.86361e-09
-4.16582e-11
4.90639e-09
-4.27877e-11
4.952e-09
-4.56102e-11
5.00053e-09
-4.85393e-11
5.04843e-09
-4.78986e-11
5.09118e-09
-4.27502e-11
5.12581e-09
-3.46217e-11
5.15035e-09
-2.45299e-11
5.16246e-09
-1.21084e-11
5.15979e-09
2.66663e-12
5.14195e-09
1.78284e-11
5.11073e-09
3.12218e-11
5.06819e-09
4.25436e-11
5.01622e-09
5.1971e-11
4.9571e-09
5.91254e-11
4.89379e-09
6.33091e-11
4.83027e-09
6.352e-11
4.7696e-09
6.06643e-11
4.71186e-09
5.77449e-11
4.65643e-09
5.54301e-11
4.60422e-09
5.22124e-11
4.55586e-09
4.83512e-11
4.51073e-09
4.5136e-11
4.46742e-09
4.33154e-11
4.42289e-09
4.45331e-11
4.37323e-09
4.96621e-11
4.31597e-09
5.72529e-11
4.24856e-09
6.74098e-11
4.16691e-09
8.16468e-11
4.06921e-09
9.77065e-11
3.95803e-09
1.11172e-10
3.83738e-09
1.20655e-10
3.71071e-09
1.26669e-10
3.58224e-09
1.28463e-10
3.45677e-09
1.25471e-10
3.33798e-09
1.188e-10
3.22861e-09
1.09371e-10
3.13039e-09
9.82155e-11
3.04116e-09
8.92313e-11
2.95578e-09
8.53888e-11
2.8719e-09
8.38745e-11
2.78916e-09
8.27365e-11
2.70403e-09
8.51354e-11
2.61222e-09
9.18037e-11
2.51218e-09
1.00046e-10
2.40362e-09
1.08556e-10
2.28722e-09
1.16395e-10
2.16433e-09
1.22897e-10
2.03648e-09
1.27851e-10
1.90505e-09
1.31435e-10
1.76955e-09
1.35498e-10
1.63028e-09
1.39269e-10
1.48973e-09
1.4054e-10
1.34808e-09
1.41646e-10
1.20351e-09
1.44571e-10
1.05691e-09
1.46605e-10
9.12685e-10
1.44224e-10
7.74728e-10
1.3796e-10
6.44331e-10
1.30398e-10
5.22515e-10
1.21817e-10
4.08843e-10
1.13673e-10
3.02059e-10
1.06783e-10
2.02048e-10
1.00008e-10
1.08796e-10
9.3246e-11
2.62122e-11
8.25835e-11
-3.62449e-11
6.24627e-11
-6.27576e-11
2.65182e-11
-3.47245e-11
-2.80324e-11
-3.47269e-11
-1.31966e-09
1.21247e-09
-1.02991e-09
-1.97021e-09
2.88162e-09
-8.04244e-09
9.23768e-09
-1.19959e-08
1.67478e-08
-1.36802e-08
2.44891e-08
-1.38049e-08
3.18362e-08
-1.28742e-08
3.83965e-08
-1.13e-08
4.39435e-08
-9.37566e-09
4.83682e-08
-7.31994e-09
5.16625e-08
-5.27111e-09
5.38582e-08
-3.32506e-09
5.50637e-08
-1.56837e-09
5.53531e-08
4.20707e-12
5.48755e-08
1.33704e-09
5.37241e-08
2.47512e-09
5.20366e-08
3.3708e-09
4.99208e-08
4.08914e-09
4.74802e-08
4.61608e-09
4.47905e-08
4.99228e-09
4.19398e-08
5.21211e-09
3.9026e-08
5.31168e-09
3.6101e-08
5.2966e-09
3.32091e-08
5.19831e-09
3.03944e-08
5.01851e-09
2.7697e-08
4.79302e-09
2.51544e-08
4.51365e-09
2.27806e-08
4.20742e-09
2.05757e-08
3.87575e-09
1.85625e-08
3.52356e-09
1.67411e-08
3.17839e-09
1.51238e-08
2.81866e-09
1.37042e-08
2.47429e-09
1.24671e-08
2.12838e-09
1.14303e-08
1.79966e-09
1.05676e-08
1.4765e-09
9.87988e-09
1.1798e-09
9.34769e-09
8.88384e-10
8.95917e-09
6.42074e-10
8.70443e-09
4.05464e-10
8.56662e-09
2.10239e-10
8.52627e-09
3.9057e-11
8.56645e-09
-1.02278e-10
8.67978e-09
-2.20438e-10
8.84737e-09
-3.14429e-10
9.04679e-09
-3.78689e-10
9.27027e-09
-4.14888e-10
9.50931e-09
-4.26108e-10
9.74191e-09
-4.13746e-10
9.95537e-09
-3.82619e-10
1.01495e-08
-3.42674e-10
1.03155e-08
-2.9e-10
1.04437e-08
-2.21681e-10
1.05342e-08
-1.49512e-10
1.05839e-08
-7.77434e-11
1.05872e-08
1.24259e-12
1.05455e-08
8.25519e-11
1.04627e-08
1.56128e-10
1.03399e-08
2.26919e-10
1.01828e-08
2.93288e-10
1.00031e-08
3.40199e-10
9.80758e-09
3.64319e-10
9.60006e-09
3.7519e-10
9.38757e-09
3.78334e-10
9.17585e-09
3.7497e-10
8.96458e-09
3.70495e-10
8.7543e-09
3.68104e-10
8.54963e-09
3.63063e-10
8.35409e-09
3.48035e-10
8.16895e-09
3.23943e-10
7.99576e-09
2.97282e-10
7.83794e-09
2.69843e-10
7.69731e-09
2.4103e-10
7.57249e-09
2.12888e-10
7.46203e-09
1.88199e-10
7.36604e-09
1.63727e-10
7.28467e-09
1.3739e-10
7.21503e-09
1.14506e-10
7.15465e-09
9.75445e-11
7.10422e-09
8.30961e-11
7.06437e-09
6.73871e-11
7.03426e-09
4.93627e-11
7.01381e-09
3.0631e-11
7.0048e-09
1.14141e-11
7.00788e-09
-9.12107e-12
7.02074e-09
-2.91096e-11
7.04131e-09
-4.50996e-11
7.06895e-09
-5.63579e-11
7.1023e-09
-6.528e-11
7.13944e-09
-7.33887e-11
7.17941e-09
-7.99797e-11
7.22244e-09
-8.46863e-11
7.26857e-09
-8.89137e-11
7.31664e-09
-9.36785e-11
7.36476e-09
-9.6653e-11
7.41055e-09
-9.36988e-11
7.45087e-09
-8.30732e-11
7.48208e-09
-6.58421e-11
7.50097e-09
-4.34306e-11
7.50519e-09
-1.63263e-11
7.49315e-09
1.47183e-11
7.46447e-09
4.6513e-11
7.42048e-09
7.52125e-11
7.36306e-09
9.99609e-11
7.29402e-09
1.21007e-10
7.21631e-09
1.36835e-10
7.13339e-09
1.4623e-10
7.04747e-09
1.49444e-10
6.96056e-09
1.47586e-10
6.87477e-09
1.43532e-10
6.79052e-09
1.39686e-10
6.70775e-09
1.34975e-10
6.62738e-09
1.28723e-10
6.54854e-09
1.23964e-10
6.46839e-09
1.23464e-10
6.38515e-09
1.27768e-10
6.29689e-09
1.37925e-10
6.19907e-09
1.5508e-10
6.08785e-09
1.7863e-10
5.96245e-09
2.07044e-10
5.82244e-09
2.37717e-10
5.66787e-09
2.65749e-10
5.50217e-09
2.8635e-10
5.33036e-09
2.98482e-10
5.15574e-09
3.03088e-10
4.98198e-09
2.99231e-10
4.81418e-09
2.86591e-10
4.65458e-09
2.68966e-10
4.50193e-09
2.50869e-10
4.35572e-09
2.35441e-10
4.21529e-09
2.25818e-10
4.07664e-09
2.22525e-10
3.93522e-09
2.2416e-10
3.78901e-09
2.31351e-10
3.63658e-09
2.44233e-10
3.47541e-09
2.61222e-10
3.30395e-09
2.8001e-10
3.12379e-09
2.96552e-10
2.93698e-09
3.097e-10
2.74331e-09
3.21517e-10
2.54334e-09
3.31409e-10
2.33983e-09
3.39002e-10
2.13402e-09
3.45082e-10
1.92528e-09
3.49289e-10
1.71441e-09
3.52522e-10
1.50387e-09
3.55102e-10
1.29562e-09
3.54852e-10
1.09112e-09
3.48714e-10
8.93427e-10
3.35657e-10
7.06127e-10
3.17696e-10
5.31375e-10
2.96568e-10
3.69268e-10
2.75783e-10
2.19787e-10
2.56273e-10
8.585e-11
2.33953e-10
-2.8262e-11
2.07359e-10
-1.17259e-10
1.71573e-10
-1.69325e-10
1.14521e-10
-1.61793e-10
1.89854e-11
-7.89964e-11
-1.10827e-10
-1.13723e-10
-3.83227e-09
5.04474e-09
-7.2295e-09
1.42703e-09
-6.98251e-09
-8.28942e-09
-4.15765e-09
-1.48208e-08
6.8354e-11
-1.79062e-08
4.91494e-09
-1.86515e-08
9.86462e-09
-1.78239e-08
1.45666e-08
-1.6002e-08
1.88087e-08
-1.36177e-08
2.24572e-08
-1.09684e-08
2.54586e-08
-8.27255e-09
2.77883e-08
-5.65474e-09
2.94685e-08
-3.24856e-09
3.05507e-08
-1.07796e-09
3.10816e-08
8.06069e-10
3.11359e-08
2.4209e-09
3.07655e-08
3.74113e-09
3.00497e-08
4.80498e-09
2.90378e-08
5.62796e-09
2.78334e-08
6.19666e-09
2.64508e-08
6.59479e-09
2.49471e-08
6.81536e-09
2.33619e-08
6.88174e-09
2.176e-08
6.80026e-09
2.01602e-08
6.61831e-09
1.86009e-08
6.35231e-09
1.70831e-08
6.03143e-09
1.56367e-08
5.65385e-09
1.42864e-08
5.22607e-09
1.30258e-08
4.78417e-09
1.18862e-08
4.31795e-09
1.08385e-08
3.86639e-09
9.9189e-09
3.39386e-09
9.10076e-09
2.94651e-09
8.41295e-09
2.48748e-09
7.81185e-09
2.0776e-09
7.33565e-09
1.656e-09
6.93648e-09
1.28756e-09
6.64873e-09
9.29826e-10
6.42678e-09
6.2741e-10
6.28515e-09
3.5187e-10
6.21236e-09
1.11839e-10
6.19652e-09
-8.64396e-11
6.22973e-09
-2.53659e-10
6.29674e-09
-3.81439e-10
6.39502e-09
-4.76972e-10
6.51464e-09
-5.34502e-10
6.6419e-09
-5.53376e-10
6.77545e-09
-5.47299e-10
6.91056e-09
-5.17725e-10
7.03334e-09
-4.65452e-10
7.13898e-09
-3.95644e-10
7.22885e-09
-3.11542e-10
7.29897e-09
-2.19634e-10
7.34369e-09
-1.22457e-10
7.36478e-09
-1.98361e-11
7.36413e-09
8.32094e-11
7.33812e-09
1.82132e-10
7.28851e-09
2.76538e-10
7.22146e-09
3.60343e-10
7.13876e-09
4.229e-10
7.04062e-09
4.62462e-10
6.93097e-09
4.8484e-10
6.8144e-09
4.94896e-10
6.69283e-09
4.96542e-10
6.56716e-09
4.96165e-10
6.44076e-09
4.94492e-10
6.31823e-09
4.85595e-10
6.19931e-09
4.6696e-10
6.08328e-09
4.39968e-10
5.97287e-09
4.07685e-10
5.87034e-09
3.7238e-10
5.77562e-09
3.35752e-10
5.68826e-09
3.00244e-10
5.60992e-09
2.66547e-10
5.54053e-09
2.33121e-10
5.47832e-09
1.99601e-10
5.4227e-09
1.70115e-10
5.3744e-09
1.45847e-10
5.33401e-09
1.23484e-10
5.3005e-09
1.00889e-10
5.27285e-09
7.70096e-11
5.25119e-09
5.2305e-11
5.23527e-09
2.73382e-11
5.22486e-09
1.28753e-12
5.21925e-09
-2.34924e-11
5.2175e-09
-4.33536e-11
5.21995e-09
-5.88063e-11
5.2265e-09
-7.18352e-11
5.23594e-09
-8.28269e-11
5.24711e-09
-9.1155e-11
5.2594e-09
-9.69794e-11
5.27278e-09
-1.02307e-10
5.28639e-09
-1.07282e-10
5.29782e-09
-1.08078e-10
5.30571e-09
-1.01584e-10
5.31028e-09
-8.76407e-11
5.3109e-09
-6.6454e-11
5.30552e-09
-3.80624e-11
5.29271e-09
-3.52177e-12
5.27263e-09
3.47965e-11
5.24559e-09
7.35568e-11
5.21104e-09
1.09772e-10
5.16905e-09
1.41952e-10
5.12069e-09
1.69369e-10
5.06684e-09
1.90683e-10
5.00871e-09
2.04351e-10
4.94747e-09
2.10685e-10
4.88288e-09
2.12178e-10
4.81547e-09
2.10942e-10
4.74762e-09
2.07541e-10
4.67981e-09
2.02787e-10
4.61023e-09
1.983e-10
4.53862e-09
1.95576e-10
4.46537e-09
1.9671e-10
4.3889e-09
2.04242e-10
4.308e-09
2.18821e-10
4.2231e-09
2.39982e-10
4.13335e-09
2.68376e-10
4.03741e-09
3.0298e-10
3.93642e-09
3.38706e-10
3.83169e-09
3.70485e-10
3.72217e-09
3.95863e-10
3.60788e-09
4.12773e-10
3.49139e-09
4.19579e-10
3.37403e-09
4.16598e-10
3.25515e-09
4.05473e-10
3.13539e-09
3.88725e-10
3.01615e-09
3.7011e-10
2.89702e-09
3.54576e-10
2.77712e-09
3.4571e-10
2.65687e-09
3.42773e-10
2.53603e-09
3.45006e-10
2.41259e-09
3.54787e-10
2.2853e-09
3.71524e-10
2.15495e-09
3.9157e-10
2.02191e-09
4.13052e-10
1.88455e-09
4.33918e-10
1.74206e-09
4.52187e-10
1.59592e-09
4.67657e-10
1.44685e-09
4.80478e-10
1.29465e-09
4.91195e-10
1.14037e-09
4.99362e-10
9.85645e-10
5.0401e-10
8.32058e-10
5.06111e-10
6.80747e-10
5.06417e-10
5.33169e-10
5.02432e-10
3.91717e-10
4.90166e-10
2.57667e-10
4.69706e-10
1.31583e-10
4.4378e-10
1.47924e-11
4.13358e-10
-8.98972e-11
3.80466e-10
-1.79547e-10
3.45917e-10
-2.52121e-10
3.0653e-10
-3.03038e-10
2.58284e-10
-3.2462e-10
1.93161e-10
-3.07574e-10
9.74722e-11
-2.36668e-10
-5.19241e-11
-1.04407e-10
-2.4309e-10
-2.18129e-10
-5.39526e-09
1.044e-08
-1.13129e-08
7.34463e-09
-1.36999e-08
-5.90243e-09
-1.35e-08
-1.50207e-08
-1.17933e-08
-1.96129e-08
-9.26299e-09
-2.11818e-08
-6.33276e-09
-2.07541e-08
-3.29933e-09
-1.90354e-08
-3.40272e-10
-1.65768e-08
2.41343e-09
-1.37221e-08
4.88564e-09
-1.07448e-08
7.04957e-09
-7.81867e-09
8.85451e-09
-5.0535e-09
1.03336e-08
-2.55703e-09
1.1458e-08
-3.18368e-10
1.22961e-08
1.58284e-09
1.28323e-08
3.2049e-09
1.31411e-08
4.49618e-09
1.3223e-08
5.54606e-09
1.3102e-08
6.31765e-09
1.2835e-08
6.86178e-09
1.24537e-08
7.19669e-09
1.19821e-08
7.35337e-09
1.14279e-08
7.35441e-09
1.08149e-08
7.23136e-09
1.01738e-08
6.9934e-09
9.52915e-09
6.67608e-09
8.88908e-09
6.29391e-09
8.26349e-09
5.85167e-09
7.65684e-09
5.39084e-09
7.07884e-09
4.89595e-09
6.55331e-09
4.39193e-09
6.06746e-09
3.87971e-09
5.63023e-09
3.38374e-09
5.23287e-09
2.88484e-09
4.89673e-09
2.41374e-09
4.60025e-09
1.95247e-09
4.35007e-09
1.53774e-09
4.14172e-09
1.13817e-09
3.97606e-09
7.93068e-10
3.85764e-09
4.70293e-10
3.76632e-09
2.03155e-10
3.7089e-09
-2.90169e-11
3.68078e-09
-2.25539e-10
3.67581e-09
-3.76479e-10
3.68981e-09
-4.90963e-10
3.7202e-09
-5.64892e-10
3.76555e-09
-5.98737e-10
3.81892e-09
-6.00661e-10
3.87555e-09
-5.74352e-10
3.93371e-09
-5.23611e-10
3.99087e-09
-4.52813e-10
4.04384e-09
-3.64504e-10
4.08907e-09
-2.64875e-10
4.12426e-09
-1.57647e-10
4.15022e-09
-4.57925e-11
4.16872e-09
6.47008e-11
4.1802e-09
1.70658e-10
4.18513e-09
2.71611e-10
4.18417e-09
3.61293e-10
4.17447e-09
4.32603e-10
4.15144e-09
4.85497e-10
4.11577e-09
5.20513e-10
4.07173e-09
5.3894e-10
4.02197e-09
5.46306e-10
3.96928e-09
5.48852e-10
3.91644e-09
5.47336e-10
3.86412e-09
5.37912e-10
3.81033e-09
5.2075e-10
3.75363e-09
4.96664e-10
3.69648e-09
4.64835e-10
3.64139e-09
4.27467e-10
3.58862e-09
3.88522e-10
3.53813e-09
3.50729e-10
3.49099e-09
3.13689e-10
3.44742e-09
2.76696e-10
3.40602e-09
2.41e-10
3.36709e-09
2.09047e-10
3.33214e-09
1.80797e-10
3.30233e-09
1.53289e-10
3.27695e-09
1.26274e-10
3.2534e-09
1.00558e-10
3.23176e-09
7.39379e-11
3.21322e-09
4.58751e-11
3.19613e-09
1.8379e-11
3.17924e-09
-6.60049e-12
3.16355e-09
-2.76572e-11
3.15027e-09
-4.55326e-11
3.13935e-09
-6.09103e-11
3.12921e-09
-7.26801e-11
3.11937e-09
-8.13175e-11
3.11069e-09
-8.82947e-11
3.10187e-09
-9.34952e-11
3.0907e-09
-9.61178e-11
3.07703e-09
-9.44131e-11
3.06145e-09
-8.60086e-11
3.04412e-09
-7.03047e-11
3.02536e-09
-4.76898e-11
3.00522e-09
-1.79231e-11
2.98339e-09
1.83038e-11
2.96011e-09
5.80815e-11
2.93583e-09
9.78285e-11
2.91009e-09
1.35517e-10
2.88171e-09
1.70327e-10
2.85054e-09
2.00545e-10
2.81713e-09
2.241e-10
2.78094e-09
2.40531e-10
2.74119e-09
2.50436e-10
2.69841e-09
2.54968e-10
2.65303e-09
2.56316e-10
2.60476e-09
2.55802e-10
2.55427e-09
2.53282e-10
2.50209e-09
2.50472e-10
2.44689e-09
2.50775e-10
2.3882e-09
2.5541e-10
2.32795e-09
2.64485e-10
2.26692e-09
2.79855e-10
2.20401e-09
3.02894e-10
2.14009e-09
3.32295e-10
2.07725e-09
3.65818e-10
2.01552e-09
4.00441e-10
1.95401e-09
4.31997e-10
1.89266e-09
4.5721e-10
1.83049e-09
4.74932e-10
1.76541e-09
4.84665e-10
1.69676e-09
4.85243e-10
1.62527e-09
4.76968e-10
1.55005e-09
4.63942e-10
1.46962e-09
4.5054e-10
1.38547e-09
4.3873e-10
1.30004e-09
4.31134e-10
1.21301e-09
4.2981e-10
1.12382e-09
4.34201e-10
1.03396e-09
4.44646e-10
9.44261e-10
4.61219e-10
8.54185e-10
4.81643e-10
7.63547e-10
5.03689e-10
6.72651e-10
5.24814e-10
5.81037e-10
5.43802e-10
4.87237e-10
5.6146e-10
3.9116e-10
5.76558e-10
2.94802e-10
5.87556e-10
1.99261e-10
5.949e-10
1.04112e-10
5.99155e-10
1.03692e-11
5.99851e-10
-7.90513e-11
5.95839e-10
-1.62549e-10
5.85931e-10
-2.40287e-10
5.67905e-10
-3.1163e-10
5.41049e-10
-3.75268e-10
5.07421e-10
-4.29891e-10
4.67988e-10
-4.73415e-10
4.23991e-10
-5.02926e-10
3.75423e-10
-5.1455e-10
3.18148e-10
-5.03443e-10
2.47177e-10
-4.65412e-10
1.55135e-10
-3.93687e-10
2.57489e-11
-2.76915e-10
-1.68698e-10
-1.14115e-10
-4.05893e-10
-3.32243e-10
-5.964e-09
1.6404e-08
-1.30876e-08
1.44682e-08
-1.69198e-08
-2.07025e-09
-1.82642e-08
-1.36763e-08
-1.81026e-08
-1.97744e-08
-1.70359e-08
-2.22485e-08
-1.54423e-08
-2.23477e-08
-1.35579e-08
-2.09199e-08
-1.15489e-08
-1.85858e-08
-9.51291e-09
-1.57581e-08
-7.53725e-09
-1.27204e-08
-5.67155e-09
-9.68437e-09
-3.94465e-09
-6.78039e-09
-2.38905e-09
-4.11264e-09
-1.00071e-09
-1.7067e-09
1.92967e-10
3.89163e-10
1.2181e-09
2.17976e-09
2.04936e-09
3.66493e-09
2.74061e-09
4.8548e-09
3.28449e-09
5.77377e-09
3.70208e-09
6.44419e-09
3.98333e-09
6.91543e-09
4.16528e-09
7.17143e-09
4.26272e-09
7.25696e-09
4.28938e-09
7.2047e-09
4.25651e-09
7.02628e-09
4.16573e-09
6.76687e-09
4.04032e-09
6.41931e-09
3.87184e-09
6.02014e-09
3.70751e-09
5.55517e-09
3.51943e-09
5.08402e-09
3.33316e-09
4.5782e-09
3.12982e-09
4.08304e-09
2.95148e-09
3.56208e-09
2.7646e-09
3.07171e-09
2.60069e-09
2.57765e-09
2.42751e-09
2.12565e-09
2.28673e-09
1.67852e-09
2.1476e-09
1.27731e-09
2.02794e-09
9.12726e-10
1.91809e-09
5.80142e-10
1.82851e-09
2.92744e-10
1.75562e-09
4.38672e-11
1.69195e-09
-1.61869e-10
1.64212e-09
-3.2664e-10
1.60395e-09
-4.5279e-10
1.5785e-09
-5.39447e-10
1.56569e-09
-5.8592e-10
1.56204e-09
-5.97013e-10
1.56746e-09
-5.79775e-10
1.57962e-09
-5.35766e-10
1.5964e-09
-4.69588e-10
1.61911e-09
-3.8722e-10
1.64562e-09
-2.91379e-10
1.67293e-09
-1.84952e-10
1.70066e-09
-7.35267e-11
1.72762e-09
3.77469e-11
1.75304e-09
1.45239e-10
1.77937e-09
2.45281e-10
1.80721e-09
3.33464e-10
1.83355e-09
4.06257e-10
1.85459e-09
4.64459e-10
1.86773e-09
5.07368e-10
1.87217e-09
5.34497e-10
1.86827e-09
5.5022e-10
1.85938e-09
5.57729e-10
1.84927e-09
5.57453e-10
1.8385e-09
5.48686e-10
1.82575e-09
5.33491e-10
1.80969e-09
5.12731e-10
1.79036e-09
4.84168e-10
1.76791e-09
4.49913e-10
1.74277e-09
4.13664e-10
1.71698e-09
3.7652e-10
1.69185e-09
3.38812e-10
1.6671e-09
3.01448e-10
1.64158e-09
2.6652e-10
1.61635e-09
2.34281e-10
1.5932e-09
2.03947e-10
1.57166e-09
1.74828e-10
1.55127e-09
1.46664e-10
1.53193e-09
1.19908e-10
1.51288e-09
9.29797e-11
1.49387e-09
6.48891e-11
1.47417e-09
3.80808e-11
1.45343e-09
1.41368e-11
1.43267e-09
-6.89899e-12
1.41219e-09
-2.50534e-11
1.39201e-09
-4.07315e-11
1.37232e-09
-5.29955e-11
1.35227e-09
-6.12704e-11
1.33156e-09
-6.75739e-11
1.31059e-09
-7.25199e-11
1.2882e-09
-7.37307e-11
1.26313e-09
-6.93437e-11
1.23642e-09
-5.92997e-11
1.20984e-09
-4.37281e-11
1.18379e-09
-2.16404e-11
1.15809e-09
7.77596e-12
1.13356e-09
4.28379e-11
1.11122e-09
8.04241e-11
1.09076e-09
1.18277e-10
1.07141e-09
1.54864e-10
1.05274e-09
1.89003e-10
1.03384e-09
2.19447e-10
1.01397e-09
2.43964e-10
9.93222e-10
2.61283e-10
9.70495e-10
2.73163e-10
9.44051e-10
2.81411e-10
9.14681e-10
2.85686e-10
8.83982e-10
2.86502e-10
8.50873e-10
2.8639e-10
8.14078e-10
2.87265e-10
7.7479e-10
2.9006e-10
7.34089e-10
2.9611e-10
6.91929e-10
3.06648e-10
6.49491e-10
3.22293e-10
6.08529e-10
3.43855e-10
5.69364e-10
3.71457e-10
5.3243e-10
4.02752e-10
4.9923e-10
4.33642e-10
4.69668e-10
4.61559e-10
4.41277e-10
4.85602e-10
4.12437e-10
5.03773e-10
3.82955e-10
5.14146e-10
3.51167e-10
5.17029e-10
3.147e-10
5.13433e-10
2.73198e-10
5.05445e-10
2.26983e-10
4.96755e-10
1.76092e-10
4.89621e-10
1.2188e-10
4.85344e-10
6.62162e-11
4.85475e-10
9.88338e-12
4.90535e-10
-4.70239e-11
5.01556e-10
-1.03984e-10
5.18181e-10
-1.59314e-10
5.36973e-10
-2.12324e-10
5.56699e-10
-2.64685e-10
5.77174e-10
-3.17245e-10
5.9636e-10
-3.69202e-10
6.13416e-10
-4.20354e-10
6.27711e-10
-4.70937e-10
6.38144e-10
-5.20356e-10
6.44322e-10
-5.67413e-10
6.46213e-10
-6.11247e-10
6.43683e-10
-6.5074e-10
6.35332e-10
-6.84554e-10
6.19746e-10
-7.11998e-10
5.9535e-10
-7.32541e-10
5.61591e-10
-7.46e-10
5.20878e-10
-7.51333e-10
4.73322e-10
-7.45078e-10
4.17742e-10
-7.24265e-10
3.54613e-10
-6.86815e-10
2.80695e-10
-6.29288e-10
1.89647e-10
-5.4715e-10
7.29967e-11
-4.3589e-10
-8.55095e-11
-2.90008e-10
-3.14579e-10
-1.13786e-10
-5.82116e-10
-4.4603e-10
-5.87782e-09
2.22818e-08
-1.32703e-08
2.18607e-08
-1.77609e-08
2.4203e-09
-1.99651e-08
-1.14721e-08
-2.07445e-08
-1.89951e-08
-2.06204e-08
-2.23726e-08
-1.99216e-08
-2.30464e-08
-1.88338e-08
-2.20077e-08
-1.75278e-08
-1.98918e-08
-1.6071e-08
-1.72149e-08
-1.45451e-08
-1.42464e-08
-1.29964e-08
-1.1233e-08
-1.14655e-08
-8.31131e-09
-9.99414e-09
-5.584e-09
-8.58544e-09
-3.11539e-09
-7.27919e-09
-9.17088e-10
-6.059e-09
9.59565e-10
-4.95422e-09
2.56015e-09
-3.96053e-09
3.86112e-09
-3.08939e-09
4.90262e-09
-2.32111e-09
5.67591e-09
-1.63986e-09
6.23418e-09
-1.06567e-09
6.59725e-09
-5.8636e-10
6.77766e-09
-1.86932e-10
6.80526e-09
1.30108e-10
6.70924e-09
3.85306e-10
6.51166e-09
5.84106e-10
6.22051e-09
7.34305e-10
5.86994e-09
8.27872e-10
5.4616e-09
8.86496e-10
5.02539e-09
9.12325e-10
4.55238e-09
9.23984e-10
4.07139e-09
8.94971e-10
3.5911e-09
8.55145e-10
3.11154e-09
7.9694e-10
2.63586e-09
7.30367e-10
2.19222e-09
6.5483e-10
1.75406e-09
5.63327e-10
1.36881e-09
4.8166e-10
9.94391e-10
3.91587e-10
6.70217e-10
3.0445e-10
3.79879e-10
2.21355e-10
1.26964e-10
1.41128e-10
-8.16394e-11
6.82951e-11
-2.53808e-10
8.74106e-13
-3.85367e-10
-6.00683e-11
-4.78505e-10
-1.10403e-10
-5.35581e-10
-1.49613e-10
-5.57807e-10
-1.79216e-10
-5.50167e-10
-1.99914e-10
-5.15064e-10
-2.11441e-10
-4.58066e-10
-2.13953e-10
-3.84702e-10
-2.08766e-10
-2.96565e-10
-1.94691e-10
-1.99025e-10
-1.7152e-10
-9.66982e-11
-1.42716e-10
8.94211e-12
-1.10717e-10
1.13241e-10
-7.44423e-11
2.09005e-10
-3.51399e-11
2.94165e-10
3.68869e-12
3.6743e-10
4.18212e-11
4.26327e-10
7.8458e-11
4.70731e-10
1.10376e-10
5.02584e-10
1.35462e-10
5.2513e-10
1.55168e-10
5.38023e-10
1.71814e-10
5.40813e-10
1.85046e-10
5.35451e-10
1.94885e-10
5.23647e-10
2.01949e-10
5.0567e-10
2.05894e-10
4.80224e-10
2.05517e-10
4.50288e-10
2.0014e-10
4.19044e-10
1.91545e-10
3.85118e-10
1.81336e-10
3.49018e-10
1.69317e-10
3.13467e-10
1.55277e-10
2.80561e-10
1.4012e-10
2.49436e-10
1.25454e-10
2.18611e-10
1.10918e-10
1.89362e-10
9.52589e-11
1.62322e-10
7.9132e-11
1.36034e-10
6.28892e-11
1.09222e-10
4.55643e-11
8.22157e-11
2.61584e-11
5.74876e-11
4.50032e-12
3.57936e-11
-1.76953e-11
1.52964e-11
-3.94452e-11
-3.3018e-12
-6.23995e-11
-1.77759e-11
-8.69475e-11
-2.84499e-11
-1.11354e-10
-3.6867e-11
-1.35601e-10
-4.33262e-11
-1.61406e-10
-4.67145e-11
-1.89294e-10
-4.5842e-11
-2.18134e-10
-4.04997e-11
-2.46865e-10
-3.05674e-11
-2.75313e-10
-1.52832e-11
-3.03012e-10
6.05512e-12
-3.28761e-10
3.35239e-11
-3.51652e-10
6.57294e-11
-3.71009e-10
9.97807e-11
-3.86668e-10
1.33936e-10
-4.00005e-10
1.68201e-10
-4.12024e-10
2.01019e-10
-4.21943e-10
2.29363e-10
-4.30315e-10
2.52334e-10
-4.39743e-10
2.7071e-10
-4.51146e-10
2.84566e-10
-4.63843e-10
2.94106e-10
-4.78421e-10
3.00263e-10
-4.95569e-10
3.03652e-10
-5.14661e-10
3.05483e-10
-5.357e-10
3.08302e-10
-5.59258e-10
3.13616e-10
-5.84133e-10
3.20985e-10
-6.08458e-10
3.30974e-10
-6.32008e-10
3.45842e-10
-6.5448e-10
3.66327e-10
-6.73815e-10
3.90793e-10
-6.88431e-10
4.17368e-10
-6.98838e-10
4.44047e-10
-7.05964e-10
4.68684e-10
-7.10674e-10
4.90312e-10
-7.14584e-10
5.07684e-10
-7.1904e-10
5.186e-10
-7.24941e-10
5.22928e-10
-7.34031e-10
5.22523e-10
-7.47956e-10
5.19371e-10
-7.66774e-10
5.15574e-10
-7.89291e-10
5.12137e-10
-8.14182e-10
5.10234e-10
-8.41095e-10
5.12388e-10
-8.69467e-10
5.18906e-10
-8.97309e-10
5.29397e-10
-9.23529e-10
5.44404e-10
-9.48236e-10
5.61682e-10
-9.70852e-10
5.79318e-10
-9.91262e-10
5.97587e-10
-1.01023e-09
6.15328e-10
-1.02794e-09
6.31127e-10
-1.04387e-09
6.43643e-10
-1.05739e-09
6.51661e-10
-1.06832e-09
6.55258e-10
-1.07668e-09
6.54569e-10
-1.08166e-09
6.48666e-10
-1.08143e-09
6.35103e-10
-1.07467e-09
6.12991e-10
-1.06185e-09
5.8253e-10
-1.04294e-09
5.42682e-10
-1.01647e-09
4.94405e-10
-9.80843e-10
4.3769e-10
-9.33992e-10
3.70892e-10
-8.73528e-10
2.94153e-10
-7.97598e-10
2.04767e-10
-7.03822e-10
9.58699e-11
-5.89215e-10
-4.16136e-11
-4.51495e-10
-2.23231e-10
-2.88543e-10
-4.77529e-10
-1.09029e-10
-7.61629e-10
-5.5506e-10
-5.3441e-09
2.76259e-08
-1.2364e-08
2.88807e-08
-1.69921e-08
7.04837e-09
-1.96329e-08
-8.83125e-09
-2.09754e-08
-1.76525e-08
-2.14624e-08
-2.18857e-08
-2.13739e-08
-2.31349e-08
-2.0888e-08
-2.24935e-08
-2.01006e-08
-2.06792e-08
-1.9115e-08
-1.82005e-08
-1.79799e-08
-1.53814e-08
-1.67506e-08
-1.24623e-08
-1.54668e-08
-9.59512e-09
-1.41551e-08
-6.89571e-09
-1.28545e-08
-4.41599e-09
-1.15684e-08
-2.20322e-09
-1.0342e-08
-2.66851e-10
-9.16997e-09
1.38817e-09
-8.06983e-09
2.76097e-09
-7.03534e-09
3.86815e-09
-6.09743e-09
4.73799e-09
-5.24558e-09
5.38233e-09
-4.47087e-09
5.82254e-09
-3.78807e-09
6.09486e-09
-3.18353e-09
6.20071e-09
-2.65882e-09
6.18454e-09
-2.19373e-09
6.04658e-09
-1.81684e-09
5.84361e-09
-1.49296e-09
5.54606e-09
-1.2343e-09
5.20294e-09
-1.01317e-09
4.80427e-09
-8.55475e-10
4.39468e-09
-7.33449e-10
3.94935e-09
-6.49105e-10
3.50675e-09
-5.92337e-10
3.05477e-09
-5.78994e-10
2.62252e-09
-5.79319e-10
2.19254e-09
-6.16e-10
1.79074e-09
-6.55627e-10
1.40844e-09
-7.21004e-10
1.05977e-09
-7.95341e-10
7.44556e-10
-8.74233e-10
4.58767e-10
-9.60991e-10
2.13717e-10
-1.04744e-09
4.81634e-12
-1.13434e-09
-1.66915e-10
-1.21912e-09
-3.00592e-10
-1.2987e-09
-3.98913e-10
-1.37174e-09
-4.62555e-10
-1.43601e-09
-4.93528e-10
-1.49006e-09
-4.96115e-10
-1.53242e-09
-4.72717e-10
-1.5637e-09
-4.26784e-10
-1.58501e-09
-3.63384e-10
-1.5959e-09
-2.85682e-10
-1.59569e-09
-1.99237e-10
-1.58524e-09
-1.07144e-10
-1.56477e-09
-1.15271e-11
-1.53436e-09
8.2824e-11
-1.49673e-09
1.71378e-10
-1.45542e-09
2.52856e-10
-1.4125e-09
3.2451e-10
-1.368e-09
3.81822e-10
-1.32409e-09
4.26831e-10
-1.28363e-09
4.62117e-10
-1.24572e-09
4.87215e-10
-1.20986e-09
5.02171e-10
-1.17785e-09
5.088e-10
-1.1512e-09
5.08801e-10
-1.1284e-09
5.00849e-10
-1.10811e-09
4.85382e-10
-1.09211e-09
4.64222e-10
-1.08128e-09
4.39455e-10
-1.07449e-09
4.12253e-10
-1.07088e-09
3.81509e-10
-1.07086e-09
3.48994e-10
-1.07496e-09
3.17578e-10
-1.08139e-09
2.86988e-10
-1.0887e-09
2.56745e-10
-1.09747e-09
2.27381e-10
-1.1081e-09
1.99989e-10
-1.12004e-09
1.74263e-10
-1.13242e-09
1.48408e-10
-1.14576e-09
1.22569e-10
-1.16185e-09
9.83022e-11
-1.1803e-09
7.59363e-11
-1.19967e-09
5.51622e-11
-1.22037e-09
3.59969e-11
-1.24285e-09
1.91773e-11
-1.26637e-09
5.74586e-12
-1.29036e-09
-4.45716e-12
-1.31487e-09
-1.23529e-11
-1.3403e-09
-1.78998e-11
-1.36685e-09
-2.01677e-11
-1.3944e-09
-1.82928e-11
-1.42254e-09
-1.2352e-11
-1.45018e-09
-2.92749e-12
-1.47654e-09
1.10754e-11
-1.50183e-09
3.1346e-11
-1.52497e-09
5.66584e-11
-1.54379e-09
8.45433e-11
-1.55837e-09
1.14364e-10
-1.56998e-09
1.45549e-10
-1.57826e-09
1.76477e-10
-1.58305e-09
2.05809e-10
-1.58571e-09
2.32019e-10
-1.58699e-09
2.53618e-10
-1.58735e-09
2.71063e-10
-1.58832e-09
2.85538e-10
-1.59077e-09
2.96557e-10
-1.59399e-09
3.03482e-10
-1.59818e-09
3.07839e-10
-1.6047e-09
3.12e-10
-1.61337e-09
3.16973e-10
-1.6226e-09
3.22843e-10
-1.63163e-09
3.30024e-10
-1.64046e-09
3.39802e-10
-1.64837e-09
3.53745e-10
-1.65405e-09
3.72013e-10
-1.65612e-09
3.92868e-10
-1.65353e-09
4.14776e-10
-1.64653e-09
4.3704e-10
-1.63623e-09
4.58392e-10
-1.62339e-09
4.77468e-10
-1.60873e-09
4.93017e-10
-1.59363e-09
5.03507e-10
-1.57986e-09
5.09149e-10
-1.56885e-09
5.11514e-10
-1.56099e-09
5.11517e-10
-1.55623e-09
5.10811e-10
-1.55477e-09
5.10679e-10
-1.5557e-09
5.11162e-10
-1.55764e-09
5.14324e-10
-1.56042e-09
5.2169e-10
-1.56323e-09
5.32205e-10
-1.56427e-09
5.45446e-10
-1.56276e-09
5.60174e-10
-1.55877e-09
5.75325e-10
-1.55283e-09
5.91641e-10
-1.54501e-09
6.07518e-10
-1.5344e-09
6.20516e-10
-1.52067e-09
6.29917e-10
-1.50437e-09
6.35356e-10
-1.48541e-09
6.36298e-10
-1.46272e-09
6.31878e-10
-1.43547e-09
6.21423e-10
-1.40334e-09
6.02969e-10
-1.36535e-09
5.74998e-10
-1.32089e-09
5.38067e-10
-1.26981e-09
4.91612e-10
-1.21111e-09
4.35701e-10
-1.14337e-09
3.69944e-10
-1.06461e-09
2.92134e-10
-9.72411e-10
2.01951e-10
-8.65899e-10
9.82586e-11
-7.44432e-10
-2.55954e-11
-6.06214e-10
-1.79833e-10
-4.50193e-10
-3.79255e-10
-2.78061e-10
-6.49662e-10
-1.01845e-10
-9.37844e-10
-6.56905e-10
-4.55244e-09
3.21784e-08
-1.07927e-08
3.51209e-08
-1.52004e-08
1.1456e-08
-1.79785e-08
-6.05315e-09
-1.96466e-08
-1.59844e-08
-2.05563e-08
-2.09759e-08
-2.08988e-08
-2.27925e-08
-2.08422e-08
-2.25501e-08
-2.04728e-08
-2.10487e-08
-1.98778e-08
-1.87954e-08
-1.90881e-08
-1.61712e-08
-1.81647e-08
-1.33856e-08
-1.71254e-08
-1.06344e-08
-1.60304e-08
-7.99072e-09
-1.48867e-08
-5.55969e-09
-1.3735e-08
-3.355e-09
-1.25784e-08
-1.4234e-09
-1.14392e-08
2.48982e-10
-1.03503e-08
1.67202e-09
-9.31258e-09
2.83046e-09
-8.32555e-09
3.75096e-09
-7.40389e-09
4.46067e-09
-6.56227e-09
4.98091e-09
-5.78321e-09
5.3158e-09
-5.08493e-09
5.50243e-09
-4.4597e-09
5.55932e-09
-3.91528e-09
5.50216e-09
-3.42577e-09
5.35412e-09
-3.00576e-09
5.12605e-09
-2.64706e-09
4.84423e-09
-2.3571e-09
4.51431e-09
-2.11048e-09
4.14806e-09
-1.919e-09
3.75788e-09
-1.77195e-09
3.3597e-09
-1.66882e-09
2.95163e-09
-1.60099e-09
2.5547e-09
-1.56438e-09
2.15592e-09
-1.56426e-09
1.79063e-09
-1.58188e-09
1.42606e-09
-1.62757e-09
1.10546e-09
-1.68631e-09
8.03287e-10
-1.76046e-09
5.32924e-10
-1.84618e-09
2.99439e-10
-1.93564e-09
9.42755e-11
-2.02947e-09
-7.30803e-11
-2.12364e-09
-2.0642e-10
-2.21454e-09
-3.0801e-10
-2.30067e-09
-3.76421e-10
-2.3802e-09
-4.14002e-10
-2.45145e-09
-4.24865e-10
-2.51141e-09
-4.12758e-10
-2.55888e-09
-3.79308e-10
-2.5947e-09
-3.2757e-10
-2.61845e-09
-2.61936e-10
-2.63038e-09
-1.87296e-10
-2.63159e-09
-1.05938e-10
-2.62202e-09
-2.11004e-11
-2.60163e-09
6.24376e-11
-2.57235e-09
1.42105e-10
-2.53581e-09
2.16312e-10
-2.49437e-09
2.83072e-10
-2.45128e-09
3.3873e-10
-2.40836e-09
3.83914e-10
-2.36651e-09
4.20267e-10
-2.32559e-09
4.46304e-10
-2.28639e-09
4.62969e-10
-2.25016e-09
4.72564e-10
-2.21697e-09
4.7562e-10
-2.187e-09
4.70878e-10
-2.16094e-09
4.59317e-10
-2.14003e-09
4.43318e-10
-2.12358e-09
4.23008e-10
-2.11027e-09
3.98937e-10
-2.1009e-09
3.72136e-10
-2.09584e-09
3.43937e-10
-2.09438e-09
3.16115e-10
-2.0955e-09
2.88115e-10
-2.09855e-09
2.59792e-10
-2.10396e-09
2.32791e-10
-2.11156e-09
2.07584e-10
-2.12045e-09
1.83152e-10
-2.13071e-09
1.58672e-10
-2.14269e-09
1.34544e-10
-2.15674e-09
1.12349e-10
-2.17308e-09