/*--------------------------------*- C++ -*----------------------------------*\
  =========                 |
  \\      /  F ield         | OpenFOAM: The Open Source CFD Toolbox
   \\    /   O peration     | Website:  https://openfoam.org
    \\  /    A nd           | Version:  7
     \\/     M anipulation  |
\*---------------------------------------------------------------------------*/
FoamFile
{
    version     2.0;
    format      ascii;
    class       volVectorField;
    location    "0.025";
    object      U;
}
// * * * * * * * * * * * * * * * * * * * * * * * * * * * * * * * * * * * * * //

dimensions      [0 1 -1 0 0 0 0];

internalField   nonuniform List<vector> 
51200
(
(-3.75123e-05 -5.66758e-05 0)
(8.26193e-05 -0.00025324 0)
(0.000550776 -0.000489772 0)
(0.00136339 -0.000635454 0)
(0.00233383 -0.000691437 0)
(0.00333006 -0.000682845 0)
(0.00427042 -0.000628351 0)
(0.00509779 -0.000544774 0)
(0.00578802 -0.000448517 0)
(0.00632685 -0.000347596 0)
(0.00671478 -0.000246559 0)
(0.00696113 -0.000152843 0)
(0.00707698 -6.56028e-05 0)
(0.00707951 8.60693e-06 0)
(0.00698291 7.50117e-05 0)
(0.00680597 0.00012728 0)
(0.00656122 0.000171456 0)
(0.00626771 0.000204877 0)
(0.00593106 0.000231908 0)
(0.0055705 0.000249574 0)
(0.00519715 0.000257723 0)
(0.00481294 0.000264741 0)
(0.0044301 0.000265567 0)
(0.00405485 0.000261164 0)
(0.00369202 0.00025645 0)
(0.00334806 0.000244453 0)
(0.00302209 0.000232862 0)
(0.00271726 0.000218222 0)
(0.00243799 0.000200363 0)
(0.00218146 0.000183979 0)
(0.00195296 0.000167016 0)
(0.00174763 0.000150958 0)
(0.00156717 0.000132653 0)
(0.00141214 0.000117913 0)
(0.00128083 0.000101791 0)
(0.00116809 8.76059e-05 0)
(0.001083 7.2643e-05 0)
(0.00101512 5.81879e-05 0)
(0.00096442 4.51452e-05 0)
(0.00093583 3.50571e-05 0)
(0.000916138 2.59238e-05 0)
(0.000910816 1.76248e-05 0)
(0.000916733 1.0743e-05 0)
(0.000931766 5.10028e-06 0)
(0.000951431 2.27047e-09 0)
(0.000977919 -3.14026e-06 0)
(0.00100938 -3.02558e-06 0)
(0.00103834 -2.66724e-06 0)
(0.00106754 -3.25653e-06 0)
(0.00109786 -2.97712e-06 0)
(0.00112324 -2.53365e-06 0)
(0.00114383 -2.01622e-06 0)
(0.00116208 5.38517e-07 0)
(0.00117492 3.53168e-06 0)
(0.00118112 4.82396e-06 0)
(0.00118306 6.9061e-06 0)
(0.00118038 1.11962e-05 0)
(0.00117098 1.59212e-05 0)
(0.00115543 2.04944e-05 0)
(0.00113607 2.48486e-05 0)
(0.00111281 2.71253e-05 0)
(0.00108602 2.55818e-05 0)
(0.0010589 2.2167e-05 0)
(0.00103278 2.03552e-05 0)
(0.00100641 2.05797e-05 0)
(0.000979842 2.13834e-05 0)
(0.000954124 2.27084e-05 0)
(0.000929036 2.39335e-05 0)
(0.000904355 2.29003e-05 0)
(0.000880885 1.94998e-05 0)
(0.000859865 1.61388e-05 0)
(0.00084116 1.45115e-05 0)
(0.000823917 1.37672e-05 0)
(0.000808412 1.28488e-05 0)
(0.000795129 1.18073e-05 0)
(0.000784025 1.0535e-05 0)
(0.000774438 8.82389e-06 0)
(0.000766067 6.91486e-06 0)
(0.000759344 5.49137e-06 0)
(0.000754016 4.8401e-06 0)
(0.000749249 4.2903e-06 0)
(0.000745199 3.10828e-06 0)
(0.000742788 1.58386e-06 0)
(0.000741984 5.1953e-07 0)
(0.000742391 -3.52479e-07 0)
(0.000744188 -1.5727e-06 0)
(0.000747322 -2.63785e-06 0)
(0.000751677 -3.19434e-06 0)
(0.000756881 -3.46332e-06 0)
(0.000762283 -3.72414e-06 0)
(0.000768115 -4.20445e-06 0)
(0.00077464 -4.5149e-06 0)
(0.000781501 -4.40441e-06 0)
(0.000788725 -4.49271e-06 0)
(0.000796282 -4.82702e-06 0)
(0.000803881 -4.75492e-06 0)
(0.000811328 -4.09075e-06 0)
(0.00081782 -2.95103e-06 0)
(0.000822526 -1.66011e-06 0)
(0.000825388 -5.20381e-07 0)
(0.000826192 8.34864e-07 0)
(0.00082461 2.56456e-06 0)
(0.000820753 4.09967e-06 0)
(0.000814682 5.23896e-06 0)
(0.000806772 6.11992e-06 0)
(0.0007979 6.65793e-06 0)
(0.000788337 6.96798e-06 0)
(0.000778121 7.10217e-06 0)
(0.000767992 6.7747e-06 0)
(0.000758445 6.22922e-06 0)
(0.000749363 5.98503e-06 0)
(0.000740845 5.80067e-06 0)
(0.000732919 5.33364e-06 0)
(0.000725325 4.8855e-06 0)
(0.000718159 4.73621e-06 0)
(0.000711365 4.90858e-06 0)
(0.000704065 5.49335e-06 0)
(0.000695505 6.3756e-06 0)
(0.000685498 7.29557e-06 0)
(0.000673626 8.42275e-06 0)
(0.000659325 9.98896e-06 0)
(0.000642623 1.15527e-05 0)
(0.000623978 1.24856e-05 0)
(0.0006039 1.27736e-05 0)
(0.000583197 1.26332e-05 0)
(0.000562894 1.20022e-05 0)
(0.000543514 1.09594e-05 0)
(0.000525164 9.75362e-06 0)
(0.000508363 8.45323e-06 0)
(0.000493412 7.38585e-06 0)
(0.000479601 6.95675e-06 0)
(0.000466287 6.89729e-06 0)
(0.00045322 6.93338e-06 0)
(0.000439777 7.21878e-06 0)
(0.000425506 7.80347e-06 0)
(0.000410211 8.76281e-06 0)
(0.000393548 9.91673e-06 0)
(0.000375574 1.08155e-05 0)
(0.000356358 1.15274e-05 0)
(0.000336043 1.20695e-05 0)
(0.000315299 1.24063e-05 0)
(0.000294084 1.29117e-05 0)
(0.000272089 1.34502e-05 0)
(0.000249685 1.37507e-05 0)
(0.00022701 1.40299e-05 0)
(0.000204024 1.44897e-05 0)
(0.000180792 1.49955e-05 0)
(0.00015763 1.51648e-05 0)
(0.000134996 1.50523e-05 0)
(0.000113258 1.46555e-05 0)
(9.30304e-05 1.39807e-05 0)
(7.41978e-05 1.35042e-05 0)
(5.65075e-05 1.30355e-05 0)
(4.01027e-05 1.24985e-05 0)
(2.43933e-05 1.20297e-05 0)
(9.8138e-06 1.09116e-05 0)
(-1.9884e-06 8.76129e-06 0)
(-9.42193e-06 5.37204e-06 0)
(-8.88689e-06 7.97845e-08 0)
(-3.97579e-06 -2.36143e-06 0)
(-0.000226521 2.09272e-05 0)
(-0.000307174 -0.00041004 0)
(3.92301e-05 -0.00108119 0)
(0.000899827 -0.00151092 0)
(0.00205436 -0.00167679 0)
(0.0033019 -0.00166404 0)
(0.00452687 -0.0015296 0)
(0.00565077 -0.00132273 0)
(0.00662613 -0.00107677 0)
(0.00742817 -0.000822225 0)
(0.00804278 -0.000569713 0)
(0.00848049 -0.000335354 0)
(0.00874998 -0.000121519 0)
(0.00886518 6.38076e-05 0)
(0.00884471 0.000222252 0)
(0.00871078 0.0003538 0)
(0.0084813 0.000456043 0)
(0.00816847 0.000537867 0)
(0.00780516 0.000594063 0)
(0.00739153 0.000634041 0)
(0.00694193 0.000653122 0)
(0.00647954 0.000663419 0)
(0.00600908 0.000656895 0)
(0.00554517 0.000641846 0)
(0.00508612 0.000615107 0)
(0.00464041 0.000586912 0)
(0.00422225 0.000550123 0)
(0.00382847 0.000512292 0)
(0.00346339 0.000467333 0)
(0.00312513 0.000423926 0)
(0.00281602 0.000381274 0)
(0.00254077 0.000335621 0)
(0.00230015 0.000297169 0)
(0.00208682 0.000250049 0)
(0.00190292 0.000213821 0)
(0.00175496 0.000171053 0)
(0.00162952 0.000139814 0)
(0.0015319 9.92011e-05 0)
(0.00146064 7.2253e-05 0)
(0.00140776 4.31672e-05 0)
(0.00137736 1.96351e-05 0)
(0.0013643 -1.75329e-07 0)
(0.00136428 -1.66758e-05 0)
(0.0013762 -3.09767e-05 0)
(0.0014008 -4.24788e-05 0)
(0.00143231 -4.92745e-05 0)
(0.00146412 -5.31155e-05 0)
(0.00150105 -5.33354e-05 0)
(0.00154104 -5.01675e-05 0)
(0.0015765 -4.63768e-05 0)
(0.00160868 -4.20877e-05 0)
(0.0016385 -3.508e-05 0)
(0.00166247 -2.63154e-05 0)
(0.00167964 -1.7687e-05 0)
(0.0016907 -9.22106e-06 0)
(0.0016952 6.31043e-08 0)
(0.00169259 9.5436e-06 0)
(0.00168277 1.82472e-05 0)
(0.00166556 2.77867e-05 0)
(0.00164238 3.74774e-05 0)
(0.00161533 4.39598e-05 0)
(0.00158507 4.64286e-05 0)
(0.00155252 4.6496e-05 0)
(0.00151937 4.53575e-05 0)
(0.00148588 4.38942e-05 0)
(0.00145151 4.3252e-05 0)
(0.00141733 4.37109e-05 0)
(0.00138416 4.42149e-05 0)
(0.00135182 4.27718e-05 0)
(0.00132099 3.92441e-05 0)
(0.00129256 3.50943e-05 0)
(0.00126648 3.11858e-05 0)
(0.00124236 2.76149e-05 0)
(0.00122068 2.43712e-05 0)
(0.00120191 2.17972e-05 0)
(0.00118583 1.91284e-05 0)
(0.00117178 1.58231e-05 0)
(0.00115943 1.27202e-05 0)
(0.00114905 1.05677e-05 0)
(0.0011404 9.0806e-06 0)
(0.00113316 7.33459e-06 0)
(0.00112735 5.10344e-06 0)
(0.00112313 2.77108e-06 0)
(0.001121 4.3099e-07 0)
(0.00112087 -1.99544e-06 0)
(0.00112205 -4.5888e-06 0)
(0.00112456 -6.73154e-06 0)
(0.0011286 -7.88637e-06 0)
(0.00113384 -8.84255e-06 0)
(0.00113953 -9.97377e-06 0)
(0.00114521 -1.07681e-05 0)
(0.0011517 -1.12818e-05 0)
(0.00115937 -1.17664e-05 0)
(0.00116707 -1.23521e-05 0)
(0.00117444 -1.29609e-05 0)
(0.00118199 -1.27707e-05 0)
(0.00118923 -1.13467e-05 0)
(0.00119522 -9.17588e-06 0)
(0.00119921 -6.38788e-06 0)
(0.00120076 -2.90704e-06 0)
(0.0012002 9.36262e-07 0)
(0.0011974 4.90743e-06 0)
(0.00119151 8.6718e-06 0)
(0.00118288 1.17339e-05 0)
(0.0011726 1.41962e-05 0)
(0.00116098 1.62275e-05 0)
(0.0011483 1.7367e-05 0)
(0.00113491 1.74517e-05 0)
(0.00112078 1.70022e-05 0)
(0.00110662 1.63875e-05 0)
(0.00109327 1.56849e-05 0)
(0.00108017 1.49615e-05 0)
(0.00106684 1.41508e-05 0)
(0.00105398 1.32912e-05 0)
(0.00104152 1.28968e-05 0)
(0.00102857 1.34521e-05 0)
(0.00101493 1.4863e-05 0)
(0.00100022 1.69298e-05 0)
(0.000983312 1.98243e-05 0)
(0.000964149 2.35656e-05 0)
(0.000943274 2.75771e-05 0)
(0.000920009 3.1164e-05 0)
(0.000893923 3.38971e-05 0)
(0.000866415 3.54928e-05 0)
(0.000838747 3.58792e-05 0)
(0.000810975 3.51648e-05 0)
(0.000783573 3.34175e-05 0)
(0.000757396 3.08657e-05 0)
(0.000732374 2.80932e-05 0)
(0.000708222 2.58667e-05 0)
(0.000685388 2.46967e-05 0)
(0.000663722 2.43284e-05 0)
(0.000641628 2.43828e-05 0)
(0.000618153 2.52099e-05 0)
(0.000594065 2.69209e-05 0)
(0.000569408 2.90441e-05 0)
(0.000542898 3.14044e-05 0)
(0.000514455 3.36299e-05 0)
(0.000484983 3.5308e-05 0)
(0.000454535 3.66601e-05 0)
(0.000422947 3.77553e-05 0)
(0.000390637 3.87031e-05 0)
(0.000358052 3.95824e-05 0)
(0.000324975 4.00519e-05 0)
(0.000291044 4.04197e-05 0)
(0.000257027 4.09684e-05 0)
(0.000223849 4.1259e-05 0)
(0.000191218 4.07296e-05 0)
(0.000158783 3.91929e-05 0)
(0.000127437 3.71714e-05 0)
(9.84496e-05 3.48111e-05 0)
(7.16745e-05 3.24475e-05 0)
(4.65996e-05 3.05104e-05 0)
(2.37308e-05 2.83926e-05 0)
(3.53879e-06 2.58858e-05 0)
(-1.32513e-05 2.24382e-05 0)
(-2.50746e-05 1.63948e-05 0)
(-2.90075e-05 5.89742e-06 0)
(-2.0979e-05 -9.01679e-06 0)
(-7.94456e-06 -1.05982e-05 0)
(-0.000468381 0.00043302 0)
(-0.000994532 -0.000154679 0)
(-0.0012513 -0.00142204 0)
(-0.000971672 -0.0022575 0)
(-0.00036185 -0.00263429 0)
(0.000386589 -0.00269334 0)
(0.00118465 -0.0025385 0)
(0.00196635 -0.00225073 0)
(0.00269002 -0.00188872 0)
(0.00332464 -0.00149336 0)
(0.00385676 -0.00109902 0)
(0.00428332 -0.000717153 0)
(0.00460459 -0.000374477 0)
(0.00482296 -5.95341e-05 0)
(0.00494998 0.000204951 0)
(0.00499386 0.000435734 0)
(0.0049673 0.000616206 0)
(0.00487813 0.000764529 0)
(0.0047354 0.000874568 0)
(0.00455838 0.000950551 0)
(0.00434941 0.00100116 0)
(0.00411476 0.00102332 0)
(0.00386812 0.001026 0)
(0.00361017 0.00101037 0)
(0.00335403 0.000976771 0)
(0.00310127 0.000936395 0)
(0.00285084 0.000886004 0)
(0.00261489 0.000825053 0)
(0.00239111 0.000764315 0)
(0.00218266 0.000693913 0)
(0.00198785 0.000627678 0)
(0.0018154 0.000559872 0)
(0.0016553 0.000489808 0)
(0.00151719 0.00042394 0)
(0.00139785 0.000358131 0)
(0.00129327 0.000297355 0)
(0.00120959 0.000234006 0)
(0.00113762 0.000182556 0)
(0.00108381 0.000130959 0)
(0.00104319 8.39093e-05 0)
(0.00101468 4.68447e-05 0)
(0.000996856 1.19877e-05 0)
(0.000990739 -1.73177e-05 0)
(0.000992172 -3.99719e-05 0)
(0.00100062 -5.83816e-05 0)
(0.00101512 -7.37688e-05 0)
(0.0010328 -8.15214e-05 0)
(0.00105205 -8.28372e-05 0)
(0.00107275 -8.19231e-05 0)
(0.00109488 -7.67547e-05 0)
(0.00111593 -6.77012e-05 0)
(0.00113406 -5.73898e-05 0)
(0.00115023 -4.48254e-05 0)
(0.00116359 -3.01083e-05 0)
(0.00117203 -1.5146e-05 0)
(0.00117686 -1.83915e-07 0)
(0.00117931 1.47327e-05 0)
(0.0011774 2.85249e-05 0)
(0.00117089 4.11851e-05 0)
(0.00116159 5.33208e-05 0)
(0.00114953 6.33506e-05 0)
(0.00113436 6.97202e-05 0)
(0.00111743 7.31179e-05 0)
(0.00109984 7.44555e-05 0)
(0.00108119 7.38394e-05 0)
(0.00106117 7.23948e-05 0)
(0.00104098 7.12673e-05 0)
(0.00102126 7.0056e-05 0)
(0.00100124 6.7777e-05 0)
(0.000981636 6.39725e-05 0)
(0.000963894 5.92102e-05 0)
(0.000947477 5.38508e-05 0)
(0.000931485 4.80337e-05 0)
(0.000916588 4.23591e-05 0)
(0.000903581 3.73459e-05 0)
(0.000892039 3.267e-05 0)
(0.000881233 2.78589e-05 0)
(0.000871385 2.35048e-05 0)
(0.000863385 1.99626e-05 0)
(0.000856741 1.6919e-05 0)
(0.000850461 1.38128e-05 0)
(0.000845245 1.01728e-05 0)
(0.000841552 6.47702e-06 0)
(0.000838838 2.8868e-06 0)
(0.000836813 -1.02727e-06 0)
(0.000835269 -4.79877e-06 0)
(0.000834675 -7.86578e-06 0)
(0.000835202 -1.01245e-05 0)
(0.000835912 -1.17474e-05 0)
(0.000836845 -1.33572e-05 0)
(0.000838414 -1.48265e-05 0)
(0.000840371 -1.56353e-05 0)
(0.000842768 -1.63288e-05 0)
(0.000845033 -1.71639e-05 0)
(0.000846607 -1.74754e-05 0)
(0.00084823 -1.68049e-05 0)
(0.000849689 -1.47625e-05 0)
(0.000850005 -1.13524e-05 0)
(0.000849388 -7.1711e-06 0)
(0.000847881 -2.13145e-06 0)
(0.000845281 3.87217e-06 0)
(0.000841886 9.84211e-06 0)
(0.000837021 1.51788e-05 0)
(0.000830247 2.00322e-05 0)
(0.000822908 2.40612e-05 0)
(0.000815342 2.70401e-05 0)
(0.000806496 2.91475e-05 0)
(0.000796682 3.00283e-05 0)
(0.000786592 2.96827e-05 0)
(0.000775962 2.91217e-05 0)
(0.000765162 2.86847e-05 0)
(0.000754591 2.78443e-05 0)
(0.000743445 2.68068e-05 0)
(0.000731728 2.61997e-05 0)
(0.000720414 2.61699e-05 0)
(0.000708934 2.7018e-05 0)
(0.000696123 2.91902e-05 0)
(0.00068243 3.25147e-05 0)
(0.000668441 3.67482e-05 0)
(0.000653682 4.19869e-05 0)
(0.000638031 4.77231e-05 0)
(0.000621742 5.27832e-05 0)
(0.000604472 5.64983e-05 0)
(0.000586191 5.8895e-05 0)
(0.000567749 5.99135e-05 0)
(0.000549487 5.93405e-05 0)
(0.000530729 5.73612e-05 0)
(0.000511266 5.44752e-05 0)
(0.000491923 5.12023e-05 0)
(0.000473044 4.83918e-05 0)
(0.000454114 4.68343e-05 0)
(0.000435051 4.63777e-05 0)
(0.000415835 4.66888e-05 0)
(0.000396011 4.80375e-05 0)
(0.000375758 5.04816e-05 0)
(0.000355384 5.36405e-05 0)
(0.000334476 5.70432e-05 0)
(0.000312723 6.01735e-05 0)
(0.000290098 6.28472e-05 0)
(0.000266867 6.511e-05 0)
(0.000243411 6.69986e-05 0)
(0.000219494 6.86467e-05 0)
(0.000194912 6.99476e-05 0)
(0.000169983 7.07214e-05 0)
(0.000145118 7.11812e-05 0)
(0.000120705 7.15331e-05 0)
(9.70176e-05 7.13532e-05 0)
(7.41472e-05 6.99364e-05 0)
(5.19367e-05 6.72305e-05 0)
(3.07343e-05 6.35645e-05 0)
(1.12915e-05 5.9276e-05 0)
(-6.3909e-06 5.49156e-05 0)
(-2.21144e-05 5.05407e-05 0)
(-3.52828e-05 4.56512e-05 0)
(-4.56238e-05 3.97606e-05 0)
(-5.2112e-05 3.16234e-05 0)
(-5.27773e-05 1.92853e-05 0)
(-4.55267e-05 -4.93419e-07 0)
(-2.83636e-05 -2.66192e-05 0)
(-9.98515e-06 -2.58281e-05 0)
(-0.000617595 0.00120178 0)
(-0.00143864 0.000629741 0)
(-0.002113 -0.00121714 0)
(-0.0022611 -0.00247304 0)
(-0.00206338 -0.00308696 0)
(-0.00170366 -0.00326962 0)
(-0.00125638 -0.00316148 0)
(-0.000772717 -0.00286976 0)
(-0.000285583 -0.00247143 0)
(0.000175107 -0.00202048 0)
(0.000595237 -0.00155274 0)
(0.000964078 -0.00109862 0)
(0.00128508 -0.000674878 0)
(0.0015485 -0.000293134 0)
(0.00175487 4.63083e-05 0)
(0.00191172 0.000335178 0)
(0.00202026 0.000578468 0)
(0.00208595 0.000770976 0)
(0.00211683 0.000925435 0)
(0.00211611 0.00103505 0)
(0.00207926 0.00111319 0)
(0.00202574 0.0011583 0)
(0.00195884 0.00117578 0)
(0.0018761 0.00116548 0)
(0.00178309 0.00114394 0)
(0.00168154 0.00109955 0)
(0.00157427 0.00104705 0)
(0.00147396 0.000987439 0)
(0.00137282 0.000913209 0)
(0.00127228 0.000841707 0)
(0.0011796 0.000759182 0)
(0.00108716 0.00068351 0)
(0.0010089 0.000599811 0)
(0.000934852 0.000525986 0)
(0.000866561 0.000443235 0)
(0.00080901 0.000373254 0)
(0.000758116 0.000299881 0)
(0.000716799 0.00023584 0)
(0.000675932 0.000172691 0)
(0.000647585 0.000120873 0)
(0.000626771 7.02458e-05 0)
(0.000607583 2.83247e-05 0)
(0.000597403 -5.99718e-06 0)
(0.000590319 -3.60929e-05 0)
(0.000586913 -5.90579e-05 0)
(0.000589275 -7.57985e-05 0)
(0.000592876 -8.73919e-05 0)
(0.000597789 -9.32406e-05 0)
(0.000606469 -9.28088e-05 0)
(0.000615884 -8.75073e-05 0)
(0.00062401 -7.94068e-05 0)
(0.000633362 -6.82454e-05 0)
(0.000643443 -5.39879e-05 0)
(0.000651365 -3.85251e-05 0)
(0.000657217 -2.1655e-05 0)
(0.000662146 -2.98055e-06 0)
(0.000665731 1.52455e-05 0)
(0.00066776 3.16861e-05 0)
(0.000669256 4.6934e-05 0)
(0.000670152 6.01901e-05 0)
(0.000669209 7.02895e-05 0)
(0.000666318 7.78649e-05 0)
(0.000661748 8.3655e-05 0)
(0.000655263 8.71316e-05 0)
(0.000647466 8.80867e-05 0)
(0.00063936 8.7808e-05 0)
(0.000631399 8.68876e-05 0)
(0.000623182 8.46016e-05 0)
(0.000614013 8.11498e-05 0)
(0.000604686 7.72473e-05 0)
(0.000595901 7.27583e-05 0)
(0.000586943 6.71173e-05 0)
(0.000577959 6.05267e-05 0)
(0.000569949 5.40964e-05 0)
(0.000562705 4.81936e-05 0)
(0.000555261 4.2356e-05 0)
(0.000547882 3.64852e-05 0)
(0.000541394 3.14567e-05 0)
(0.000535867 2.73611e-05 0)
(0.000530809 2.32003e-05 0)
(0.000525956 1.88633e-05 0)
(0.000521988 1.46969e-05 0)
(0.000518857 1.05837e-05 0)
(0.000515662 6.33629e-06 0)
(0.000512615 1.75844e-06 0)
(0.000509925 -2.53765e-06 0)
(0.000507461 -5.74773e-06 0)
(0.000505439 -8.39364e-06 0)
(0.0005034 -1.08657e-05 0)
(0.000501223 -1.27824e-05 0)
(0.000499632 -1.41944e-05 0)
(0.00049852 -1.52313e-05 0)
(0.000497293 -1.60386e-05 0)
(0.00049557 -1.67855e-05 0)
(0.000493296 -1.67355e-05 0)
(0.000491077 -1.52918e-05 0)
(0.000488831 -1.28545e-05 0)
(0.000485693 -9.3826e-06 0)
(0.000482089 -4.56908e-06 0)
(0.000478895 1.20621e-06 0)
(0.00047567 7.64173e-06 0)
(0.000471855 1.43198e-05 0)
(0.000467594 2.03177e-05 0)
(0.000463025 2.55435e-05 0)
(0.00045836 3.04077e-05 0)
(0.000453682 3.42972e-05 0)
(0.00044834 3.66385e-05 0)
(0.000441901 3.79229e-05 0)
(0.000435052 3.85016e-05 0)
(0.000428342 3.83921e-05 0)
(0.000421164 3.80058e-05 0)
(0.000413014 3.75391e-05 0)
(0.000404451 3.68783e-05 0)
(0.000395966 3.65359e-05 0)
(0.000387156 3.71595e-05 0)
(0.000377667 3.86511e-05 0)
(0.000367734 4.09202e-05 0)
(0.00035753 4.44175e-05 0)
(0.00034718 4.92766e-05 0)
(0.00033718 5.49272e-05 0)
(0.000327572 6.06675e-05 0)
(0.000317627 6.58734e-05 0)
(0.000307346 6.99211e-05 0)
(0.000297543 7.25564e-05 0)
(0.000287913 7.39247e-05 0)
(0.000277397 7.39045e-05 0)
(0.000266008 7.23176e-05 0)
(0.000254146 6.97866e-05 0)
(0.000241623 6.72189e-05 0)
(0.000228477 6.50498e-05 0)
(0.0002151 6.36186e-05 0)
(0.000201508 6.31631e-05 0)
(0.00018728 6.3705e-05 0)
(0.000172466 6.5371e-05 0)
(0.000158061 6.80578e-05 0)
(0.00014419 7.142e-05 0)
(0.00012969 7.51057e-05 0)
(0.000114674 7.85246e-05 0)
(0.000100033 8.14924e-05 0)
(8.54268e-05 8.42877e-05 0)
(7.03166e-05 8.67506e-05 0)
(5.48741e-05 8.86098e-05 0)
(3.94772e-05 8.98901e-05 0)
(2.41379e-05 9.06987e-05 0)
(8.8343e-06 9.10508e-05 0)
(-5.818e-06 9.08346e-05 0)
(-1.93818e-05 8.97795e-05 0)
(-3.20643e-05 8.73849e-05 0)
(-4.42251e-05 8.36055e-05 0)
(-5.54667e-05 7.87907e-05 0)
(-6.47524e-05 7.31226e-05 0)
(-7.23476e-05 6.69947e-05 0)
(-7.86393e-05 6.03525e-05 0)
(-8.24045e-05 5.24777e-05 0)
(-8.27482e-05 4.27664e-05 0)
(-7.91429e-05 3.00674e-05 0)
(-7.07034e-05 1.1918e-05 0)
(-5.52031e-05 -1.60246e-05 0)
(-3.15891e-05 -5.08995e-05 0)
(-1.07218e-05 -4.36703e-05 0)
(-0.00067721 0.00213742 0)
(-0.00161437 0.00171864 0)
(-0.00250792 -0.000674487 0)
(-0.00289992 -0.00233766 0)
(-0.00294851 -0.00319219 0)
(-0.00283423 -0.00351184 0)
(-0.00261107 -0.00348479 0)
(-0.00232863 -0.00322701 0)
(-0.00201231 -0.00284072 0)
(-0.00168358 -0.0023793 0)
(-0.00136057 -0.00189375 0)
(-0.00105302 -0.00141095 0)
(-0.000765591 -0.000949116 0)
(-0.00050108 -0.000536641 0)
(-0.000263907 -0.000158561 0)
(-5.75467e-05 0.000161222 0)
(0.000119045 0.000440206 0)
(0.000268691 0.000662477 0)
(0.000387829 0.000846983 0)
(0.000487176 0.000981927 0)
(0.000566841 0.00107978 0)
(0.000619054 0.00114706 0)
(0.000653595 0.00117952 0)
(0.000677539 0.00118785 0)
(0.000688956 0.00116956 0)
(0.000685588 0.00113693 0)
(0.00067825 0.00109027 0)
(0.000656595 0.00103155 0)
(0.000634363 0.000961661 0)
(0.000608226 0.000887837 0)
(0.00057728 0.000809823 0)
(0.000549993 0.000724413 0)
(0.000517329 0.000646676 0)
(0.000485865 0.000560944 0)
(0.000456917 0.000483111 0)
(0.000429887 0.000403469 0)
(0.000402925 0.000330333 0)
(0.000375955 0.000259749 0)
(0.000354792 0.000194061 0)
(0.000334577 0.000138781 0)
(0.000313198 8.37394e-05 0)
(0.000300043 3.90627e-05 0)
(0.000286767 5.87948e-07 0)
(0.00027461 -3.28753e-05 0)
(0.000266796 -5.76284e-05 0)
(0.00025977 -7.61715e-05 0)
(0.000253826 -8.93859e-05 0)
(0.000250786 -9.5861e-05 0)
(0.000250078 -9.6913e-05 0)
(0.000250172 -9.39151e-05 0)
(0.00025106 -8.61013e-05 0)
(0.000253631 -7.4316e-05 0)
(0.000257043 -6.06695e-05 0)
(0.000260899 -4.56328e-05 0)
(0.000265611 -2.86785e-05 0)
(0.000270174 -1.05838e-05 0)
(0.000274085 7.62445e-06 0)
(0.000278187 2.57681e-05 0)
(0.000282573 4.30477e-05 0)
(0.00028672 5.74215e-05 0)
(0.000290971 6.82517e-05 0)
(0.000295369 7.66552e-05 0)
(0.000298523 8.26032e-05 0)
(0.000299474 8.61678e-05 0)
(0.000299262 8.85862e-05 0)
(0.000298628 9.03285e-05 0)
(0.000297137 9.05726e-05 0)
(0.000295151 8.86065e-05 0)
(0.000293119 8.53479e-05 0)
(0.000290976 8.1524e-05 0)
(0.000288308 7.66714e-05 0)
(0.000284545 7.09564e-05 0)
(0.000280412 6.51095e-05 0)
(0.000276868 5.9308e-05 0)
(0.000273252 5.31963e-05 0)
(0.000268786 4.6869e-05 0)
(0.000264304 4.10212e-05 0)
(0.000260563 3.59369e-05 0)
(0.000256949 3.1325e-05 0)
(0.000253062 2.66475e-05 0)
(0.000249383 2.20442e-05 0)
(0.000246467 1.79212e-05 0)
(0.000243875 1.36615e-05 0)
(0.000240633 9.0271e-06 0)
(0.000237109 4.63024e-06 0)
(0.000234175 6.70523e-07 0)
(0.000231369 -2.69523e-06 0)
(0.000227958 -5.55438e-06 0)
(0.000224262 -8.23116e-06 0)
(0.00022095 -1.02348e-05 0)
(0.000217995 -1.14155e-05 0)
(0.000214912 -1.24933e-05 0)
(0.000211483 -1.34357e-05 0)
(0.000207842 -1.37851e-05 0)
(0.000204166 -1.33561e-05 0)
(0.000200249 -1.17613e-05 0)
(0.0001958 -9.07769e-06 0)
(0.00019124 -5.66369e-06 0)
(0.000187056 -1.01525e-06 0)
(0.000183183 4.9892e-06 0)
(0.000179655 1.1297e-05 0)
(0.000176253 1.74134e-05 0)
(0.000172596 2.35036e-05 0)
(0.000169359 2.91606e-05 0)
(0.000166945 3.3983e-05 0)
(0.000164189 3.79442e-05 0)
(0.000160645 4.07383e-05 0)
(0.000157099 4.23532e-05 0)
(0.000153363 4.34391e-05 0)
(0.000148933 4.41511e-05 0)
(0.000144223 4.41316e-05 0)
(0.00013912 4.3704e-05 0)
(0.000133163 4.3583e-05 0)
(0.000127071 4.39515e-05 0)
(0.000121219 4.48246e-05 0)
(0.000114565 4.64667e-05 0)
(0.000107073 4.90041e-05 0)
(0.000100159 5.24605e-05 0)
(9.40926e-05 5.70185e-05 0)
(8.8117e-05 6.24303e-05 0)
(8.23976e-05 6.77805e-05 0)
(7.73013e-05 7.24708e-05 0)
(7.24932e-05 7.64887e-05 0)
(6.79829e-05 7.95411e-05 0)
(6.38471e-05 8.11529e-05 0)
(5.92392e-05 8.1346e-05 0)
(5.35125e-05 8.04303e-05 0)
(4.70093e-05 7.88135e-05 0)
(4.0083e-05 7.70485e-05 0)
(3.25766e-05 7.55857e-05 0)
(2.42178e-05 7.47448e-05 0)
(1.52569e-05 7.46168e-05 0)
(6.20964e-06 7.52039e-05 0)
(-2.9718e-06 7.68998e-05 0)
(-1.21399e-05 7.97163e-05 0)
(-2.08682e-05 8.29375e-05 0)
(-2.95926e-05 8.62609e-05 0)
(-3.84764e-05 8.96284e-05 0)
(-4.6931e-05 9.27677e-05 0)
(-5.50036e-05 9.56106e-05 0)
(-6.30933e-05 9.80218e-05 0)
(-7.13219e-05 9.98015e-05 0)
(-7.9505e-05 0.000100932 0)
(-8.73292e-05 0.000101419 0)
(-9.4576e-05 0.000101262 0)
(-0.000101054 0.000100323 0)
(-0.000106839 9.83112e-05 0)
(-0.000111816 9.48235e-05 0)
(-0.000115772 8.98502e-05 0)
(-0.000118671 8.39126e-05 0)
(-0.000119986 7.70335e-05 0)
(-0.000119719 6.90735e-05 0)
(-0.000118066 6.0102e-05 0)
(-0.000114 4.95637e-05 0)
(-0.00010662 3.64613e-05 0)
(-9.55336e-05 1.96302e-05 0)
(-8.02451e-05 -3.64125e-06 0)
(-5.91426e-05 -3.78725e-05 0)
(-3.20923e-05 -7.88285e-05 0)
(-1.05569e-05 -6.23825e-05 0)
(-0.00067076 0.00310317 0)
(-0.00160778 0.0029082 0)
(-0.00257863 1.45942e-05 0)
(-0.00310094 -0.0020327 0)
(-0.00329276 -0.00312689 0)
(-0.00333292 -0.00359607 0)
(-0.00325829 -0.0036551 0)
(-0.00311182 -0.00345682 0)
(-0.00291701 -0.00309852 0)
(-0.0026913 -0.00265618 0)
(-0.00245214 -0.002173 0)
(-0.00220163 -0.0016845 0)
(-0.00195814 -0.00121675 0)
(-0.00171558 -0.000777365 0)
(-0.00148384 -0.000389166 0)
(-0.00126571 -4.15555e-05 0)
(-0.00106299 0.000251143 0)
(-0.000878155 0.000502968 0)
(-0.000707075 0.000699481 0)
(-0.000559746 0.000862468 0)
(-0.000427893 0.000978177 0)
(-0.000313352 0.00106033 0)
(-0.000212522 0.00111139 0)
(-0.000129325 0.00113323 0)
(-5.90588e-05 0.00113258 0)
(1.22105e-06 0.00110886 0)
(4.32298e-05 0.00107251 0)
(7.97688e-05 0.00101755 0)
(0.000108089 0.00096264 0)
(0.000128411 0.000887873 0)
(0.000137696 0.000817074 0)
(0.000144125 0.000737965 0)
(0.000149764 0.00065743 0)
(0.000146031 0.000576378 0)
(0.000141017 0.000499507 0)
(0.000132741 0.000419945 0)
(0.000123629 0.000348189 0)
(0.000111561 0.000276556 0)
(9.79653e-05 0.000214758 0)
(8.35878e-05 0.000152263 0)
(6.92744e-05 0.000101322 0)
(5.62899e-05 5.48399e-05 0)
(4.17634e-05 1.26764e-05 0)
(2.86285e-05 -1.99755e-05 0)
(1.71128e-05 -4.74146e-05 0)
(5.73177e-06 -6.87925e-05 0)
(-5.01643e-06 -8.24659e-05 0)
(-1.43348e-05 -9.02491e-05 0)
(-2.15138e-05 -9.33683e-05 0)
(-2.66734e-05 -9.16751e-05 0)
(-3.06648e-05 -8.50948e-05 0)
(-3.33657e-05 -7.50025e-05 0)
(-3.45609e-05 -6.22401e-05 0)
(-3.42656e-05 -4.69468e-05 0)
(-3.25319e-05 -3.04715e-05 0)
(-2.96834e-05 -1.39701e-05 0)
(-2.5546e-05 2.87239e-06 0)
(-2.019e-05 1.99259e-05 0)
(-1.46716e-05 3.60559e-05 0)
(-9.34494e-06 5.05697e-05 0)
(-3.00696e-06 6.28432e-05 0)
(3.94271e-06 7.25019e-05 0)
(9.82223e-06 7.92057e-05 0)
(1.49851e-05 8.32773e-05 0)
(2.0118e-05 8.61177e-05 0)
(2.41573e-05 8.79914e-05 0)
(2.64607e-05 8.84774e-05 0)
(2.83752e-05 8.76061e-05 0)
(3.05052e-05 8.56661e-05 0)
(3.19962e-05 8.2464e-05 0)
(3.26835e-05 7.76863e-05 0)
(3.28292e-05 7.22536e-05 0)
(3.2513e-05 6.70009e-05 0)
(3.16784e-05 6.15354e-05 0)
(3.00991e-05 5.55619e-05 0)
(2.79555e-05 4.95336e-05 0)
(2.58532e-05 4.41371e-05 0)
(2.38378e-05 3.91159e-05 0)
(2.13766e-05 3.40874e-05 0)
(1.85837e-05 2.92922e-05 0)
(1.62174e-05 2.48359e-05 0)
(1.41451e-05 2.06666e-05 0)
(1.15154e-05 1.6395e-05 0)
(8.48743e-06 1.17626e-05 0)
(5.62496e-06 7.58775e-06 0)
(2.70258e-06 4.1662e-06 0)
(-5.92254e-07 8.42177e-07 0)
(-4.36348e-06 -2.25613e-06 0)
(-8.30546e-06 -4.74205e-06 0)
(-1.19189e-05 -6.61574e-06 0)
(-1.56425e-05 -7.84113e-06 0)
(-1.97535e-05 -8.80367e-06 0)
(-2.37683e-05 -9.66377e-06 0)
(-2.79899e-05 -9.67851e-06 0)
(-3.25362e-05 -8.68601e-06 0)
(-3.69276e-05 -7.16309e-06 0)
(-4.1712e-05 -4.80127e-06 0)
(-4.67878e-05 -1.20791e-06 0)
(-5.08504e-05 3.35888e-06 0)
(-5.42616e-05 8.7396e-06 0)
(-5.78769e-05 1.46225e-05 0)
(-6.0943e-05 2.03466e-05 0)
(-6.32433e-05 2.58957e-05 0)
(-6.53338e-05 3.14563e-05 0)
(-6.68615e-05 3.63554e-05 0)
(-6.79495e-05 4.00233e-05 0)
(-6.95465e-05 4.27982e-05 0)
(-7.14236e-05 4.49655e-05 0)
(-7.29859e-05 4.64387e-05 0)
(-7.48937e-05 4.73362e-05 0)
(-7.76976e-05 4.7802e-05 0)
(-8.08712e-05 4.79053e-05 0)
(-8.4005e-05 4.8111e-05 0)
(-8.73029e-05 4.88893e-05 0)
(-9.10211e-05 5.00977e-05 0)
(-9.52103e-05 5.16564e-05 0)
(-9.95379e-05 5.40667e-05 0)
(-0.000103357 5.75698e-05 0)
(-0.000106407 6.17747e-05 0)
(-0.000108969 6.63163e-05 0)
(-0.000111161 7.09244e-05 0)
(-0.000112802 7.51787e-05 0)
(-0.000113786 7.88129e-05 0)
(-0.000114149 8.17091e-05 0)
(-0.000114371 8.36045e-05 0)
(-0.000115217 8.42753e-05 0)
(-0.000116711 8.38465e-05 0)
(-0.000118521 8.29108e-05 0)
(-0.000120955 8.20655e-05 0)
(-0.000124181 8.13305e-05 0)
(-0.000127957 8.07992e-05 0)
(-0.000132255 8.09682e-05 0)
(-0.000136841 8.19346e-05 0)
(-0.000141334 8.36705e-05 0)
(-0.00014557 8.62107e-05 0)
(-0.000149517 8.91186e-05 0)
(-0.000153541 9.21224e-05 0)
(-0.000157472 9.52082e-05 0)
(-0.000160512 9.81527e-05 0)
(-0.000162993 0.000100854 0)
(-0.000165684 0.000103098 0)
(-0.000168342 0.000104589 0)
(-0.0001704 0.000105332 0)
(-0.000171839 0.000105442 0)
(-0.000172843 0.00010483 0)
(-0.000173105 0.000103093 0)
(-0.000172513 0.000100068 0)
(-0.000171161 9.5642e-05 0)
(-0.00016874 8.96447e-05 0)
(-0.000165065 8.24649e-05 0)
(-0.000159838 7.4188e-05 0)
(-0.000153077 6.44621e-05 0)
(-0.000145087 5.32778e-05 0)
(-0.000134971 4.00763e-05 0)
(-0.000121473 2.39442e-05 0)
(-0.000104458 3.54345e-06 0)
(-8.4423e-05 -2.37583e-05 0)
(-5.99079e-05 -6.28015e-05 0)
(-3.12642e-05 -0.000107508 0)
(-1.01274e-05 -8.0367e-05 0)
(-0.000616658 0.00401387 0)
(-0.00147528 0.00407912 0)
(-0.00242963 0.000758159 0)
(-0.00300445 -0.00163422 0)
(-0.00328453 -0.00294598 0)
(-0.0034168 -0.00355772 0)
(-0.00344112 -0.00371136 0)
(-0.0033931 -0.00357739 0)
(-0.0032897 -0.00325883 0)
(-0.00314513 -0.00284833 0)
(-0.00297038 -0.00238124 0)
(-0.00278283 -0.0019072 0)
(-0.00257833 -0.00144143 0)
(-0.00237171 -0.0010048 0)
(-0.00216157 -0.000605958 0)
(-0.00195319 -0.000251225 0)
(-0.00175061 5.37632e-05 0)
(-0.00155831 0.000314553 0)
(-0.00137808 0.000531156 0)
(-0.00120352 0.000700593 0)
(-0.00104668 0.000833891 0)
(-0.000902488 0.000931445 0)
(-0.000775819 0.000997207 0)
(-0.000657594 0.00103148 0)
(-0.000553917 0.00104368 0)
(-0.000464507 0.00103516 0)
(-0.000384665 0.0010069 0)
(-0.000316922 0.000970058 0)
(-0.000261649 0.000914705 0)
(-0.000217066 0.000856916 0)
(-0.000176333 0.000788558 0)
(-0.000147648 0.000719636 0)
(-0.000126495 0.000644277 0)
(-0.000108084 0.000570908 0)
(-9.84532e-05 0.000494638 0)
(-9.19338e-05 0.000421945 0)
(-9.06406e-05 0.000352882 0)
(-9.47948e-05 0.000284039 0)
(-0.000100704 0.000223115 0)
(-0.00010991 0.000164906 0)
(-0.000120289 0.000113844 0)
(-0.000134067 6.7345e-05 0)
(-0.000146573 2.73352e-05 0)
(-0.00016003 -6.04692e-06 0)
(-0.000174872 -3.41879e-05 0)
(-0.000187998 -5.58296e-05 0)
(-0.000201023 -7.12186e-05 0)
(-0.000214225 -8.08636e-05 0)
(-0.000225508 -8.48748e-05 0)
(-0.000234499 -8.43019e-05 0)
(-0.000242244 -7.9893e-05 0)
(-0.000248394 -7.2105e-05 0)
(-0.000252278 -6.11127e-05 0)
(-0.000254606 -4.7256e-05 0)
(-0.000255856 -3.21337e-05 0)
(-0.000255315 -1.64916e-05 0)
(-0.000252471 -2.91106e-07 0)
(-0.000248016 1.54728e-05 0)
(-0.000242607 2.96461e-05 0)
(-0.000236577 4.27948e-05 0)
(-0.000229724 5.49426e-05 0)
(-0.000222272 6.47172e-05 0)
(-0.000215456 7.20802e-05 0)
(-0.000208919 7.76073e-05 0)
(-0.000201924 8.13625e-05 0)
(-0.000195643 8.32361e-05 0)
(-0.000190769 8.36903e-05 0)
(-0.000186272 8.34129e-05 0)
(-0.00018203 8.22159e-05 0)
(-0.000178872 7.96962e-05 0)
(-0.000176272 7.58265e-05 0)
(-0.000173789 7.13758e-05 0)
(-0.000172076 6.67499e-05 0)
(-0.000171309 6.15077e-05 0)
(-0.000171271 5.59107e-05 0)
(-0.000171693 5.05663e-05 0)
(-0.000172353 4.56122e-05 0)
(-0.00017344 4.07326e-05 0)
(-0.000174937 3.571e-05 0)
(-0.000176649 3.11242e-05 0)
(-0.000178335 2.70921e-05 0)
(-0.00017995 2.29083e-05 0)
(-0.000182209 1.85634e-05 0)
(-0.000184957 1.44179e-05 0)
(-0.00018732 1.06447e-05 0)
(-0.000189894 7.36734e-06 0)
(-0.000193255 4.22765e-06 0)
(-0.000197008 1.222e-06 0)
(-0.000200861 -9.80612e-07 0)