/*--------------------------------*- C++ -*----------------------------------*\
  =========                 |
  \\      /  F ield         | OpenFOAM: The Open Source CFD Toolbox
   \\    /   O peration     | Website:  https://openfoam.org
    \\  /    A nd           | Version:  7
     \\/     M anipulation  |
\*---------------------------------------------------------------------------*/
FoamFile
{
    version     2.0;
    format      ascii;
    class       surfaceScalarField;
    location    "0.4875";
    object      phi;
}
// * * * * * * * * * * * * * * * * * * * * * * * * * * * * * * * * * * * * * //

dimensions      [0 3 -1 0 0 0 0];

internalField   nonuniform List<scalar> 
101920
(
-1.36006e-13
1.44744e-13
-6.3089e-13
4.94635e-13
-8.09482e-13
1.78513e-13
-7.87143e-13
-2.53742e-14
-5.07948e-13
-2.79794e-13
-1.40995e-16
-5.0505e-13
6.97287e-13
-6.98891e-13
1.56369e-12
-8.63731e-13
2.56988e-12
-1.00726e-12
3.69924e-12
-1.12851e-12
4.93206e-12
-1.23357e-12
6.25418e-12
-1.3216e-12
7.65153e-12
-1.39695e-12
9.11044e-12
-1.45878e-12
1.06174e-11
-1.50829e-12
1.21625e-11
-1.5466e-12
1.37367e-11
-1.57415e-12
1.53297e-11
-1.59341e-12
1.69342e-11
-1.60441e-12
1.85416e-11
-1.60801e-12
2.01449e-11
-1.60428e-12
2.17395e-11
-1.59318e-12
2.33174e-11
-1.5783e-12
2.48756e-11
-1.55816e-12
2.64092e-11
-1.53334e-12
2.7913e-11
-1.50494e-12
2.93855e-11
-1.4719e-12
3.08229e-11
-1.43605e-12
3.22225e-11
-1.39828e-12
3.35826e-11
-1.35829e-12
3.49005e-11
-1.31743e-12
3.61748e-11
-1.27484e-12
3.74049e-11
-1.22977e-12
3.85897e-11
-1.18467e-12
3.97293e-11
-1.13971e-12
4.08233e-11
-1.09365e-12
4.18702e-11
-1.04779e-12
4.28709e-11
-1.0023e-12
4.38272e-11
-9.56369e-13
4.4738e-11
-9.11111e-13
4.5604e-11
-8.67096e-13
4.64273e-11
-8.23579e-13
4.72078e-11
-7.80831e-13
4.79464e-11
-7.39271e-13
4.86449e-11
-6.98547e-13
4.93046e-11
-6.59086e-13
4.99262e-11
-6.217e-13
5.05118e-11
-5.85277e-13
5.10622e-11
-5.49931e-13
5.15787e-11
-5.16409e-13
5.20637e-11
-4.84787e-13
5.25186e-11
-4.54792e-13
5.29448e-11
-4.2625e-13
5.33439e-11
-3.99597e-13
5.37176e-11
-3.74657e-13
5.40676e-11
-3.50549e-13
5.43951e-11
-3.27753e-13
5.47011e-11
-3.06895e-13
5.49878e-11
-2.87147e-13
5.52574e-11
-2.68366e-13
5.55102e-11
-2.5142e-13
5.57473e-11
-2.3616e-13
5.59709e-11
-2.22262e-13
5.61816e-11
-2.10188e-13
5.63799e-11
-1.99613e-13
5.6568e-11
-1.89439e-13
5.67469e-11
-1.79453e-13
5.69167e-11
-1.70388e-13
5.70787e-11
-1.62553e-13
5.72346e-11
-1.55417e-13
5.7384e-11
-1.48741e-13
5.75271e-11
-1.42911e-13
5.76648e-11
-1.37825e-13
5.77979e-11
-1.32973e-13
5.79264e-11
-1.28424e-13
5.80499e-11
-1.24198e-13
5.81688e-11
-1.19712e-13
5.82838e-11
-1.14708e-13
5.83948e-11
-1.09807e-13
5.8501e-11
-1.0545e-13
5.86021e-11
-1.01082e-13
5.8698e-11
-9.6054e-14
5.87877e-11
-9.03148e-14
5.8871e-11
-8.41363e-14
5.89476e-11
-7.73035e-14
5.90168e-11
-6.92005e-14
5.90776e-11
-6.00213e-14
5.91287e-11
-5.03596e-14
5.91693e-11
-4.017e-14
5.9199e-11
-2.90869e-14
5.92161e-11
-1.67963e-14
5.92191e-11
-3.26218e-15
5.92067e-11
1.16031e-14
5.91781e-11
2.82059e-14
5.91325e-11
4.62243e-14
5.90679e-11
6.5172e-14
5.89826e-11
8.54047e-14
5.88755e-11
1.07315e-13
5.87441e-11
1.31191e-13
5.85874e-11
1.56813e-13
5.8404e-11
1.83601e-13
5.81921e-11
2.11941e-13
5.79507e-11
2.42117e-13
5.76774e-11
2.73672e-13
5.73702e-11
3.06613e-13
5.70284e-11
3.41095e-13
5.66506e-11
3.77266e-13
5.62349e-11
4.15497e-13
5.57802e-11
4.55301e-13
5.52844e-11
4.95978e-13
5.47456e-11
5.37984e-13
5.41634e-11
5.81631e-13
5.35362e-11
6.2676e-13
5.28629e-11
6.73383e-13
5.21433e-11
7.2085e-13
5.13754e-11
7.68749e-13
5.05581e-11
8.17425e-13
4.96912e-11
8.66544e-13
4.87736e-11
9.16004e-13
4.78052e-11
9.66588e-13
4.67866e-11
1.01823e-12
4.5717e-11
1.07001e-12
4.45964e-11
1.12129e-12
4.34258e-11
1.1716e-12
4.2205e-11
1.22112e-12
4.09345e-11
1.27055e-12
3.96161e-11
1.31928e-12
3.82504e-11
1.36608e-12
3.68388e-11
1.41105e-12
3.53845e-11
1.4542e-12
3.38892e-11
1.49489e-12
3.23549e-11
1.53333e-12
3.07856e-11
1.56942e-12
2.91846e-11
1.602e-12
2.75545e-11
1.63055e-12
2.59003e-11
1.65496e-12
2.4227e-11
1.67427e-12
2.25391e-11
1.68782e-12
2.08424e-11
1.6958e-12
1.91442e-11
1.69773e-12
1.74511e-11
1.69262e-12
1.57702e-11
1.68022e-12
1.41107e-11
1.65998e-12
1.24813e-11
1.63047e-12
1.08914e-11
1.59063e-12
9.3521e-12
1.53989e-12
7.8752e-12
1.47741e-12
6.47237e-12
1.40239e-12
5.15715e-12
1.31428e-12
3.94478e-12
1.21209e-12
2.85024e-12
1.09445e-12
1.88847e-12
9.6101e-13
1.07606e-12
8.12e-13
4.29202e-13
6.47311e-13
-3.87224e-14
4.6817e-13
-3.18134e-13
2.79446e-13
-4.0835e-13
9.07109e-14
-3.29372e-13
-7.87959e-14
-1.4396e-13
-1.8643e-13
-1.4481e-13
1.72926e-13
-2.82932e-14
9.73901e-14
5.67218e-13
1.0858e-13
1.70949e-13
5.76919e-13
-4.92789e-13
1.53391e-12
-1.23769e-12
2.98811e-12
-1.95929e-12
4.91033e-12
-2.62117e-12
7.25952e-12
-3.21379e-12
9.99045e-12
-3.73717e-12
1.30577e-11
-4.1972e-12
1.64188e-11
-4.59412e-12
2.00309e-11
-4.9357e-12
2.38586e-11
-5.22364e-12
2.78645e-11
-5.46314e-12
3.20158e-11
-5.65904e-12
3.62824e-11
-5.81169e-12
4.06349e-11
-5.92678e-12
4.50485e-11
-6.00655e-12
4.94986e-11
-6.05457e-12
5.39646e-11
-6.07383e-12
5.8427e-11
-6.06487e-12
6.28648e-11
-6.03306e-12
6.72654e-11
-5.97902e-12
7.16138e-11
-5.9054e-12
7.58957e-11
-5.81556e-12
8.01014e-11
-5.7101e-12
8.42196e-11
-5.59136e-12
8.82404e-11
-5.46083e-12
9.21588e-11
-5.3186e-12
9.59673e-11
-5.16816e-12
9.96603e-11
-5.01138e-12
1.03234e-10
-4.84822e-12
1.06684e-10
-4.68069e-12
1.10009e-10
-4.51004e-12
1.13206e-10
-4.3362e-12
1.16275e-10
-4.16133e-12
1.19214e-10
-3.98688e-12
1.22026e-10
-3.81221e-12
1.24709e-10
-3.63858e-12
1.27265e-10
-3.46729e-12
1.29697e-10
-3.29804e-12
1.32007e-10
-3.13193e-12
1.34195e-10
-2.97001e-12
1.36267e-10
-2.8115e-12
1.38226e-10
-2.65728e-12
1.40074e-10
-2.50824e-12
1.41815e-10
-2.36404e-12
1.43455e-10
-2.22477e-12
1.44995e-10
-2.09139e-12
1.46442e-10
-1.96397e-12
1.47799e-10
-1.84217e-12
1.49071e-10
-1.72626e-12
1.50261e-10
-1.6167e-12
1.51376e-10
-1.51354e-12
1.52419e-10
-1.41629e-12
1.53395e-10
-1.32477e-12
1.54307e-10
-1.2396e-12
1.55161e-10
-1.16067e-12
1.55961e-10
-1.08717e-12
1.56709e-10
-1.01908e-12
1.57411e-10
-9.56185e-13
1.58071e-10
-8.97501e-13
1.58693e-10
-8.43462e-13
1.59279e-10
-7.95268e-13
1.59832e-10
-7.51989e-13
1.60357e-10
-7.12373e-13
1.60856e-10
-6.7689e-13
1.6133e-10
-6.45443e-13
1.61783e-10
-6.16738e-13
1.62219e-10
-5.9042e-13
1.62636e-10
-5.66924e-13
1.63038e-10
-5.45858e-13
1.63427e-10
-5.2631e-13
1.63802e-10
-5.08028e-13
1.64166e-10
-4.91308e-13
1.64517e-10
-4.75805e-13
1.64858e-10
-4.60494e-13
1.65187e-10
-4.44739e-13
1.65504e-10
-4.28454e-13
1.65809e-10
-4.11451e-13
1.66102e-10
-3.93193e-13
1.66382e-10
-3.73522e-13
1.66645e-10
-3.52599e-13
1.66891e-10
-3.29939e-13
1.67119e-10
-3.04613e-13
1.67326e-10
-2.75998e-13
1.6751e-10
-2.4411e-13
1.67667e-10
-2.08953e-13
1.67796e-10
-1.6985e-13
1.67894e-10
-1.26368e-13
1.67957e-10
-7.87607e-14
1.67981e-10
-2.68921e-14
1.67964e-10
2.97364e-14
1.679e-10
9.17265e-14
1.67787e-10
1.59316e-13
1.6762e-10
2.32254e-13
1.67395e-10
3.10899e-13
1.67109e-10
3.95513e-13
1.66755e-10
4.85779e-13
1.6633e-10
5.81901e-13
1.65828e-10
6.84144e-13
1.65247e-10
7.92805e-13
1.6458e-10
9.08331e-13
1.63824e-10
1.03011e-12
1.62973e-10
1.15744e-12
1.62023e-10
1.29067e-12
1.60971e-10
1.42994e-12
1.5981e-10
1.57539e-12
1.58537e-10
1.72731e-12
1.57149e-10
1.88489e-12
1.5564e-10
2.04733e-12
1.54008e-10
2.21469e-12
1.52248e-10
2.38649e-12
1.50356e-10
2.56276e-12
1.48331e-10
2.74396e-12
1.4617e-10
2.92921e-12
1.4387e-10
3.11746e-12
1.4143e-10
3.30815e-12
1.38847e-10
3.50027e-12
1.3612e-10
3.69362e-12
1.33248e-10
3.88866e-12
1.30233e-10
4.0845e-12
1.27074e-10
4.27972e-12
1.23772e-10
4.47351e-12
1.2033e-10
4.6648e-12
1.16748e-10
4.8526e-12
1.1303e-10
5.03659e-12
1.09181e-10
5.21543e-12
1.05204e-10
5.38752e-12
1.01106e-10
5.55224e-12
9.68945e-11
5.7082e-12
9.25747e-11
5.8535e-12
8.81561e-11
5.98735e-12
8.36496e-11
6.10869e-12
7.90651e-11
6.21518e-12
7.44144e-11
6.30488e-12
6.97116e-11
6.37652e-12
6.49719e-11
6.42798e-12
6.02112e-11
6.45683e-12
5.54482e-11
6.46145e-12
5.07026e-11
6.43962e-12
4.59952e-11
6.38835e-12
4.13495e-11
6.30541e-12
3.67911e-11
6.18875e-12
3.23466e-11
6.03516e-12
2.80449e-11
5.84113e-12
2.39173e-11
5.6043e-12
1.9997e-11
5.32236e-12
1.63188e-11
4.99221e-12
1.29197e-11
4.6113e-12
9.8374e-12
4.17779e-12
7.1092e-12
3.6903e-12
4.77173e-12
3.14956e-12
2.85858e-12
2.56003e-12
1.39515e-12
1.93099e-12
3.93111e-13
1.28036e-12
-1.59475e-13
6.42067e-13
-3.14407e-13
7.6007e-14
-1.86176e-13
-3.13819e-13
-3.31188e-13
8.5396e-14
-1.13777e-13
5.2329e-13
1.33285e-13
1.2255e-12
-5.31407e-13
2.45492e-12
-1.7229e-12
4.31462e-12
-3.09692e-12
6.83438e-12
-4.48006e-12
1.00029e-11
-5.79036e-12
1.37824e-11
-6.99331e-12
1.81214e-11
-8.07757e-12
2.29666e-11
-9.03895e-12
2.82551e-11
-9.883e-12
3.39322e-11
-1.06127e-11
3.99409e-11
-1.12335e-11
4.62281e-11
-1.17531e-11
5.27468e-11
-1.21764e-11
5.94469e-11
-1.25125e-11
6.62866e-11
-1.27662e-11
7.3224e-11
-1.29453e-11
8.02231e-11
-1.3055e-11
8.72523e-11
-1.30999e-11
9.42757e-11
-1.30893e-11
1.01268e-10
-1.30255e-11
1.08203e-10
-1.29139e-11
1.15057e-10
-1.27604e-11
1.21811e-10
-1.25682e-11
1.28446e-10
-1.23425e-11
1.34944e-10
-1.20885e-11
1.41293e-10
-1.18083e-11
1.4748e-10
-1.15054e-11
1.53495e-10
-1.11836e-11
1.59328e-10
-1.08449e-11
1.64975e-10
-1.04936e-11
1.70426e-10
-1.01329e-11
1.7568e-10
-9.76388e-12
1.80732e-10
-9.38923e-12
1.8558e-10
-9.01172e-12
1.90225e-10
-8.63248e-12
1.94667e-10
-8.25379e-12
1.98905e-10
-7.87803e-12
2.02943e-10
-7.50576e-12
2.06783e-10
-7.13835e-12
2.10428e-10
-6.77798e-12
2.13883e-10
-6.42505e-12
2.17153e-10
-6.08059e-12
2.20242e-10
-5.7461e-12
2.23156e-10
-5.42226e-12
2.25902e-10
-5.10889e-12
2.28484e-10
-4.80705e-12
2.30911e-10
-4.51791e-12
2.33188e-10
-4.24146e-12
2.35323e-10
-3.97746e-12
2.37323e-10
-3.72666e-12
2.39194e-10
-3.48949e-12
2.40945e-10
-3.26522e-12
2.42583e-10
-3.05383e-12
2.44113e-10
-2.85574e-12
2.45543e-10
-2.67047e-12
2.46883e-10
-2.49784e-12
2.48136e-10
-2.33833e-12
2.49309e-10
-2.19147e-12
2.5041e-10
-2.05606e-12
2.51444e-10
-1.93156e-12
2.52417e-10
-1.81796e-12
2.53334e-10
-1.71473e-12
2.54203e-10
-1.62078e-12
2.55026e-10
-1.53578e-12
2.55808e-10
-1.45988e-12
2.56555e-10
-1.39206e-12
2.5727e-10
-1.33089e-12
2.57956e-10
-1.27607e-12
2.58616e-10
-1.22728e-12
2.59253e-10
-1.18325e-12
2.5987e-10
-1.14296e-12
2.60467e-10
-1.10593e-12
2.61046e-10
-1.07143e-12
2.61609e-10
-1.0384e-12
2.62156e-10
-1.00622e-12
2.62687e-10
-9.74552e-13
2.63201e-10
-9.42394e-13
2.63697e-10
-9.08235e-13
2.64174e-10
-8.71093e-13
2.64631e-10
-8.30728e-13
2.65064e-10
-7.86838e-13
2.65472e-10
-7.3823e-13
2.65853e-10
-6.83766e-13
2.66201e-10
-6.23144e-13
2.66514e-10
-5.55904e-13
2.66786e-10
-4.81098e-13
2.67015e-10
-3.97831e-13
2.67194e-10
-3.05415e-13
2.67318e-10
-2.03421e-13
2.67382e-10
-9.11368e-14
2.67381e-10
3.19907e-14
2.67308e-10
1.66009e-13
2.67156e-10
3.1149e-13
2.66919e-10
4.69231e-13
2.6659e-10
6.39799e-13
2.66162e-10
8.23451e-13
2.65629e-10
1.0198e-12
2.64982e-10
1.22898e-12
2.64215e-10
1.45172e-12
2.6332e-10
1.68813e-12
2.62289e-10
1.9384e-12
2.61115e-10
2.20276e-12
2.59792e-10
2.48062e-12
2.58311e-10
2.7717e-12
2.56666e-10
3.07596e-12
2.54848e-10
3.39283e-12
2.52851e-10
3.72257e-12
2.50669e-10
4.0654e-12
2.48296e-10
4.42001e-12
2.45726e-10
4.78545e-12
2.42952e-10
5.161e-12
2.3997e-10
5.54562e-12
2.36774e-10
5.93929e-12
2.3336e-10
6.34161e-12
2.29725e-10
6.75091e-12
2.25865e-10
7.16613e-12
2.21778e-10
7.58628e-12
2.17463e-10
8.00939e-12
2.12919e-10
8.43402e-12
2.08144e-10
8.85921e-12
2.03141e-10
9.28307e-12
1.9791e-10
9.70369e-12
1.92456e-10
1.01194e-11
1.86781e-10
1.05277e-11
1.80891e-10
1.09263e-11
1.74792e-10
1.13134e-11
1.68492e-10
1.16868e-11
1.62e-10
1.20435e-11
1.55328e-10
1.23809e-11
1.48486e-10
1.26959e-11
1.4149e-10
1.29849e-11
1.34354e-10
1.32449e-11
1.27097e-10
1.34728e-11
1.19738e-10
1.36644e-11
1.12298e-10
1.38157e-11
1.04801e-10
1.39234e-11
9.72745e-11
1.39831e-11
8.97464e-11
1.39898e-11
8.22474e-11
1.39388e-11
7.48112e-11
1.38252e-11
6.74748e-11
1.36432e-11
6.02768e-11
1.33875e-11
5.32584e-11
1.30532e-11
4.6465e-11
1.26347e-11
3.99438e-11
1.21258e-11
3.37439e-11
1.15217e-11
2.79178e-11
1.08181e-11
2.25191e-11
1.00104e-11
1.76013e-11
9.09568e-12
1.32169e-11
8.07435e-12
9.41653e-12
6.95058e-12
6.24331e-12
5.73459e-12
3.72721e-12
4.44748e-12
1.87947e-12
3.12766e-12
6.81706e-13
1.8396e-12
7.01219e-14
6.87393e-13
-8.13468e-14
-1.61551e-13
-4.12311e-13
2.26203e-13
-3.43336e-13
1.01171e-12
-6.51285e-13
2.3669e-12
-1.88753e-12
4.42238e-12
-3.77675e-12
7.25292e-12
-5.92705e-12
1.08851e-11
-8.11199e-12
1.53073e-11
-1.02121e-11
2.04796e-11
-1.21677e-11
2.63496e-11
-1.39471e-11
3.28523e-11
-1.55426e-11
3.99207e-11
-1.69508e-11
4.74858e-11
-1.81763e-11
5.5477e-11
-1.92261e-11
6.38316e-11
-2.01071e-11
7.24851e-11
-2.08305e-11
8.13787e-11
-2.14048e-11
9.0455e-11
-2.18427e-11
9.9662e-11
-2.21533e-11
1.08953e-10
-2.23447e-11
1.18281e-10
-2.24291e-11
1.27607e-10
-2.24151e-11
1.36893e-10
-2.23107e-11
1.46105e-10
-2.21261e-11
1.55212e-10
-2.18679e-11
1.64186e-10
-2.15435e-11
1.73003e-10
-2.11613e-11
1.81642e-10
-2.07276e-11
1.90083e-10
-2.02488e-11
1.98309e-10
-1.9732e-11
2.06308e-10
-1.91815e-11
2.14065e-10
-1.86028e-11
2.21572e-10
-1.80017e-11
2.28823e-10
-1.73822e-11
2.35809e-10
-1.6749e-11
2.42526e-10
-1.61069e-11
2.48972e-10
-1.54583e-11
2.55148e-10
-1.48068e-11
2.6105e-10
-1.41567e-11
2.66682e-10
-1.351e-11
2.72046e-10
-1.28696e-11
2.77146e-10
-1.22384e-11
2.81985e-10
-1.16183e-11
2.86571e-10
-1.10109e-11
2.90908e-10
-1.04184e-11
2.95004e-10
-9.84267e-12
2.98867e-10
-9.2847e-12
3.02504e-10
-8.74541e-12
3.05922e-10
-8.22657e-12
3.09133e-10
-7.72884e-12
3.12145e-10
-7.25259e-12
3.14967e-10
-6.79862e-12
3.17608e-10
-6.36756e-12
3.20078e-10
-5.95947e-12
3.22388e-10
-5.57418e-12
3.24546e-10
-5.21204e-12
3.26562e-10
-4.87282e-12
3.28446e-10
-4.55541e-12
3.30207e-10
-4.25996e-12
3.31855e-10
-3.98677e-12
3.33397e-10
-3.73445e-12
3.34845e-10
-3.50209e-12
3.36205e-10
-3.28999e-12
3.37484e-10
-3.09723e-12
3.38691e-10
-2.9219e-12
3.39834e-10
-2.76313e-12
3.40917e-10
-2.62045e-12
3.41949e-10
-2.49262e-12
3.42935e-10
-2.37817e-12
3.43881e-10
-2.27603e-12
3.44789e-10
-2.18517e-12
3.45666e-10
-2.10405e-12
3.46514e-10
-2.03115e-12
3.47337e-10
-1.96557e-12
3.48137e-10
-1.90606e-12
3.48915e-10
-1.85054e-12
3.49673e-10
-1.79726e-12
3.50412e-10
-1.7454e-12
3.51132e-10
-1.69414e-12
3.51832e-10
-1.64177e-12
3.52511e-10
-1.58628e-12
3.53167e-10
-1.52648e-12
3.53797e-10
-1.46135e-12
3.54399e-10
-1.38937e-12
3.5497e-10
-1.30884e-12
3.55505e-10
-1.21843e-12
3.55999e-10
-1.11726e-12
3.56447e-10
-1.00408e-12
3.56844e-10
-8.77381e-13
3.57184e-10
-7.36343e-13
3.5746e-10
-5.80022e-13
3.57663e-10
-4.06945e-13
3.57788e-10
-2.1577e-13
3.57826e-10
-5.61704e-15
3.57769e-10
2.2376e-13
3.57608e-10
4.73047e-13
3.57334e-10
7.43539e-13
3.56939e-10
1.03591e-12
3.56411e-10
1.35057e-12
3.55742e-10
1.68795e-12
3.54923e-10
2.04837e-12
3.53942e-10
2.4324e-12
3.52791e-10
2.84014e-12
3.51458e-10
3.27127e-12
3.49934e-10
3.72622e-12
3.48209e-10
4.20519e-12
3.46273e-10
4.70754e-12
3.44116e-10
5.23287e-12
3.41729e-10
5.78047e-12
3.39102e-10
6.34958e-12
3.36226e-10
6.94028e-12
3.33093e-10
7.55173e-12
3.29694e-10
8.18227e-12
3.26023e-10
8.83101e-12
3.22072e-10
9.4966e-12
3.17835e-10
1.01772e-11
3.13305e-10
1.08714e-11
3.08478e-10
1.15776e-11
3.0335e-10
1.22937e-11
2.97917e-10
1.3018e-11
2.92177e-10
1.37484e-11
2.8613e-10
1.44814e-11
2.79774e-10
1.52144e-11
2.73111e-10
1.5945e-11
2.66145e-10
1.66698e-11
2.58879e-10
1.73854e-11
2.51317e-10
1.80885e-11
2.43469e-10
1.87751e-11
2.35341e-10
1.94412e-11
2.26945e-10
2.00828e-11
2.18293e-10
2.06955e-11
2.09399e-10
2.12739e-11
2.00281e-10
2.18133e-11
1.90958e-10
2.23085e-11
1.8145e-10
2.27534e-11
1.71781e-10
2.3142e-11
1.61977e-10
2.34684e-11
1.52068e-10
2.37257e-11
1.42085e-10
2.39068e-11
1.32063e-10
2.4005e-11
1.2204e-10
2.40128e-11
1.12057e-10
2.39215e-11
1.02158e-10
2.3723e-11
9.2392e-11
2.34094e-11
8.28095e-11
2.29712e-11
7.34635e-11
2.23996e-11
6.44118e-11
2.16863e-11
5.57157e-11
2.0823e-11
4.74376e-11
1.98013e-11
3.9642e-11
1.86143e-11
3.23956e-11
1.72572e-11
2.5764e-11
1.57277e-11
1.98103e-11
1.40276e-11
1.45935e-11
1.21665e-11
1.01636e-11
1.01646e-11
6.55558e-12
8.05685e-12
3.78235e-12
5.90182e-12
1.82732e-12
3.79509e-12
6.32648e-13
1.88258e-12
8.63682e-14
3.85396e-13
-3.25854e-13
3.46807e-13
-6.91035e-13
1.53792e-12
-1.84332e-12
3.55253e-12
-3.90195e-12
6.44704e-12
-6.67111e-12
1.02615e-11
-9.74203e-12
1.50053e-11
-1.28553e-11
2.06559e-11
-1.58634e-11
2.71722e-11
-1.86818e-11
3.4491e-11
-2.12675e-11
4.25456e-11
-2.35968e-11
5.12594e-11
-2.56641e-11
6.05547e-11
-2.74719e-11
7.03553e-11
-2.90256e-11
8.05837e-11
-3.0336e-11
9.11685e-11
-3.14142e-11
1.02038e-10
-3.2275e-11
1.13127e-10
-3.29321e-11
1.24374e-10
-3.33992e-11
1.3572e-10
-3.3691e-11
1.47112e-10
-3.38219e-11
1.58501e-10
-3.38035e-11
1.69841e-10
-3.36508e-11
1.81092e-10
-3.33756e-11
1.92215e-10
-3.29898e-11
2.03177e-10
-3.25055e-11
2.13948e-10
-3.19324e-11
2.24501e-10
-3.12807e-11
2.34812e-10
-3.0561e-11
2.44863e-10
-2.97819e-11
2.54634e-10
-2.89521e-11
2.6411e-10
-2.80802e-11
2.7328e-10
-2.71727e-11
2.82135e-10
-2.62369e-11
2.90666e-10
-2.52806e-11
2.98868e-10
-2.43092e-11
3.06738e-10
-2.3328e-11
3.14273e-10
-2.2343e-11
3.21475e-10
-2.13589e-11
3.28345e-10
-2.03796e-11
3.34885e-10
-1.941e-11
3.411e-10
-1.8454e-11
3.46997e-10
-1.75144e-11
3.52581e-10
-1.65945e-11
3.57859e-10
-1.56975e-11
3.62842e-10
-1.48253e-11
3.67538e-10
-1.39797e-11
3.71956e-10
-1.31636e-11
3.76106e-10
-1.23783e-11
3.80002e-10
-1.16245e-11
3.83653e-10
-1.09037e-11
3.87071e-10
-1.02171e-11
3.90268e-10
-9.56485e-12
3.93256e-10
-8.94719e-12
3.96046e-10
-8.3647e-12
3.98652e-10
-7.81743e-12
4.01085e-10
-7.30492e-12
4.03357e-10
-6.82672e-12
4.05479e-10
-6.38263e-12
4.07464e-10
-5.97173e-12
4.09321e-10
-5.59241e-12
4.11063e-10
-5.24403e-12
4.12699e-10
-4.92629e-12
4.14239e-10
-4.63737e-12
4.15693e-10
-4.37539e-12
4.1707e-10
-4.13953e-12
4.18377e-10
-3.92825e-12
4.19623e-10
-3.7392e-12
4.20816e-10
-3.57076e-12
4.21961e-10
-3.42148e-12
4.23064e-10
-3.28921e-12
4.24132e-10
-3.1716e-12
4.25167e-10
-3.06674e-12
4.26175e-10
-2.97299e-12
4.27157e-10
-2.88829e-12
4.28117e-10
-2.81e-12
4.29056e-10
-2.73588e-12
4.29974e-10
-2.66409e-12
4.30871e-10
-2.59249e-12
4.31748e-10
-2.5186e-12
4.32603e-10
-2.4402e-12
4.33432e-10
-2.35555e-12
4.34233e-10
-2.26266e-12
4.35003e-10
-2.15894e-12
4.35737e-10
-2.04232e-12
4.3643e-10
-1.91103e-12
4.37076e-10
-1.76313e-12
4.37669e-10
-1.59655e-12
4.38201e-10
-1.40923e-12
4.38666e-10
-1.19975e-12
4.39053e-10
-9.66744e-13
4.39355e-10
-7.0812e-13
4.39562e-10
-4.22174e-13
4.39664e-10
-1.076e-13
4.39651e-10
2.36885e-13
4.39512e-10
6.12413e-13
4.39236e-10
1.02029e-12
4.38811e-10
1.46141e-12
4.38225e-10
1.93634e-12
4.37467e-10
2.44604e-12
4.36523e-10
2.99141e-12
4.35383e-10
3.57292e-12
4.34032e-10
4.19076e-12
4.32459e-10
4.84469e-12
4.30651e-10
5.53455e-12
4.28596e-10
6.26066e-12
4.26281e-10
7.02263e-12
4.23693e-10
7.81972e-12
4.20821e-10
8.65143e-12
4.17654e-10
9.51652e-12
4.14181e-10
1.04137e-11
4.1039e-10
1.13418e-11
4.06272e-10
1.22993e-11
4.01817e-10
1.32844e-11
3.97016e-10
1.42957e-11
3.91863e-10
1.53304e-11
3.86348e-10
1.63856e-11
3.80467e-10
1.74587e-11
3.74215e-10
1.85468e-11
3.67586e-10
1.96466e-11
3.60579e-10
2.07548e-11
3.53192e-10
2.18677e-11
3.45426e-10
2.29805e-11
3.37281e-10
2.40889e-11
3.28762e-10
2.51885e-11
3.19873e-10
2.62739e-11
3.1062e-10
2.73396e-11
3.01015e-10
2.83804e-11
2.91066e-10
2.93901e-11
2.80788e-10
3.03617e-11
2.70195e-10
3.12885e-11
2.59306e-10
3.21633e-11
2.48141e-10
3.29782e-11
2.36724e-10
3.37251e-11
2.25081e-10
3.43961e-11
2.13242e-10
3.49817e-11
2.01238e-10
3.54723e-11
1.89105e-10
3.58586e-11
1.76883e-10
3.61301e-11
1.64613e-10
3.62757e-11
1.52341e-10
3.62842e-11
1.40118e-10
3.61444e-11
1.27996e-10
3.5844e-11
1.16034e-10
3.53708e-11
1.04293e-10
3.47126e-11
9.28367e-11
3.38569e-11
8.17327e-11
3.27911e-11
7.10524e-11
3.15039e-11
6.08689e-11
2.99854e-11
5.12573e-11
2.82267e-11
4.22935e-11
2.62216e-11
3.40519e-11
2.39691e-11
2.66042e-11
2.14753e-11
2.00161e-11
1.87551e-11
1.43431e-11
1.5838e-11
9.62542e-12
1.27745e-11
5.88391e-12
9.64414e-12
3.11173e-12
6.56818e-12
1.2688e-12
3.72639e-12
2.7441e-13
1.38016e-12
-5.17764e-14
4.92722e-13
-1.18138e-12
2.09368e-12
-3.44437e-12
4.75667e-12
-6.56604e-12
8.47939e-12
-1.03937e-11
1.32628e-11
-1.45251e-11
1.90909e-11
-1.86849e-11
2.59304e-11
-2.27025e-11
3.37273e-11
-2.64785e-11
4.2416e-11
-2.99545e-11
5.19193e-11
-3.30995e-11
6.21547e-11
-3.59015e-11
7.30406e-11
-3.83579e-11
8.44908e-11
-4.0476e-11
9.6422e-11
-4.22662e-11
1.08752e-10
-4.37445e-11
1.21403e-10
-4.49272e-11
1.34302e-10
-4.58309e-11
1.47379e-10
-4.64751e-11
1.60566e-10
-4.68793e-11
1.73805e-10
-4.70598e-11
1.87037e-10
-4.70364e-11
2.00211e-10
-4.68259e-11
2.1328e-10
-4.64444e-11
2.262e-10
-4.591e-11
2.38933e-10
-4.52377e-11
2.51443e-10
-4.44418e-11
2.63699e-10
-4.3537e-11
2.75673e-10
-4.2536e-11
2.87344e-10
-4.14514e-11
2.98688e-10
-4.02964e-11
3.09689e-10
-3.90814e-11
3.20333e-10
-3.78165e-11
3.30608e-10
-3.65127e-11
3.40505e-10
-3.51785e-11
3.50019e-10
-3.38226e-11
3.59144e-10
-3.24533e-11
3.67879e-10
-3.10781e-11
3.76223e-10
-2.97036e-11
3.8418e-10
-2.83362e-11
3.91751e-10
-2.69821e-11
3.98943e-10
-2.56463e-11
4.05762e-10
-2.43333e-11
4.12216e-10
-2.30483e-11
4.18313e-10
-2.17951e-11
4.24064e-10
-2.05762e-11
4.2948e-10
-1.93952e-11
4.34571e-10
-1.82555e-11
4.39352e-10
-1.71586e-11
4.43834e-10
-1.61062e-11
4.48031e-10
-1.51006e-11
4.51956e-10
-1.41427e-11
4.55624e-10
-1.3233e-11
4.59049e-10
-1.23725e-11
4.62245e-10
-1.15614e-11
4.65226e-10
-1.07991e-11
4.68007e-10
-1.00856e-11
4.70602e-10
-9.42123e-12
4.73024e-10
-8.80464e-12
4.75287e-10
-8.23435e-12
4.77405e-10
-7.70946e-12
4.79389e-10
-7.22885e-12
4.81253e-10
-6.79061e-12
4.83008e-10
-6.39253e-12
4.84666e-10
-6.03296e-12
4.86236e-10
-5.71033e-12
4.87729e-10
-5.42198e-12
4.89155e-10
-5.16505e-12
4.90522e-10
-4.93749e-12
4.91837e-10
-4.73692e-12
4.93108e-10
-4.56012e-12
4.94341e-10
-4.40426e-12
4.95541e-10
-4.26685e-12
4.96712e-10
-4.14481e-12
4.97858e-10
-4.0348e-12
4.98983e-10
-3.93392e-12
5.00087e-10
-3.83963e-12
5.01172e-10
-3.74888e-12
5.02237e-10
-3.65798e-12
5.03283e-10
-3.56372e-12
5.04306e-10
-3.46348e-12
5.05304e-10
-3.3544e-12
5.06274e-10
-3.2332e-12
5.07212e-10
-3.09657e-12
5.08112e-10
-2.94191e-12
5.08968e-10
-2.76669e-12
5.09773e-10
-2.56775e-12
5.1052e-10
-2.34235e-12
5.11199e-10
-2.08816e-12
5.11802e-10
-1.80257e-12
5.12319e-10
-1.48311e-12
5.12739e-10
-1.12737e-12
5.13051e-10
-7.33335e-13
5.13243e-10
-2.99293e-13
5.13303e-10
1.77054e-13
5.13218e-10
6.97734e-13
5.12975e-10
1.26403e-12
5.12558e-10
1.87717e-12
5.11956e-10
2.53832e-12
5.11154e-10
3.24858e-12
5.10136e-10
4.00908e-12
5.08889e-10
4.82039e-12
5.07396e-10
5.68278e-12
5.05644e-10
6.59658e-12
5.03618e-10
7.56147e-12
5.01302e-10
8.57695e-12
4.98682e-10
9.64265e-12
4.95744e-10
1.07578e-11
4.92472e-10
1.19217e-11
4.88855e-10
1.31332e-11
4.84878e-10
1.43901e-11
4.80529e-10
1.56902e-11
4.75796e-10
1.70318e-11
4.70668e-10
1.84122e-11
4.65134e-10
1.98287e-11
4.59186e-10
2.12782e-11
4.52814e-10
2.27569e-11
4.46012e-10
2.42606e-11
4.38774e-10
2.57853e-11
4.31094e-10
2.73263e-11
4.2297e-10
2.88784e-11
4.144e-10
3.04364e-11
4.05385e-10
3.19949e-11
3.95927e-10
3.3547e-11
3.86029e-10
3.5086e-11
3.75697e-10
3.66051e-11
3.6494e-10
3.80966e-11
3.53768e-10
3.95521e-11
3.42194e-10
4.09637e-11
3.30234e-10
4.23219e-11
3.17906e-10
4.36166e-11
3.05232e-10
4.48378e-11
2.92234e-10
4.59754e-11
2.78943e-10
4.70176e-11
2.65386e-10
4.79525e-11
2.51599e-10
4.87684e-11
2.3762e-10
4.94517e-11
2.23491e-10
4.99888e-11
2.09255e-10
5.03658e-11
1.94962e-10
5.05682e-11
1.80666e-10
5.05803e-11
1.66423e-10
5.03865e-11
1.52296e-10
4.9971e-11
1.38349e-10
4.93177e-11
1.24652e-10
4.84099e-11
1.11278e-10
4.72314e-11
9.83032e-11
4.57667e-11
8.58077e-11
4.40011e-11
7.3872e-11
4.19216e-11
6.2579e-11
3.95188e-11
5.20132e-11
3.67869e-11
4.22562e-11
3.37261e-11
3.33857e-11
3.03455e-11
2.5474e-11
2.66669e-11
1.85836e-11
2.27295e-11
1.27624e-11
1.85963e-11
8.04168e-12
1.43649e-11
4.43202e-12
1.01781e-11
1.91918e-12
6.23969e-12
4.6279e-13
2.83639e-12
4.10393e-13
6.46496e-13
-1.82968e-12
2.65252e-12
-5.4507e-12
5.94202e-12
-9.85622e-12
1.04637e-11
-1.4915e-11
1.61807e-11
-2.02429e-11
2.30527e-11
-2.55566e-11
3.1026e-11
-3.0677e-11
4.00375e-11
-3.549e-11
5.00119e-11
-3.99277e-11
6.08648e-11
-4.39529e-11
7.2509e-11
-4.75461e-11
8.48547e-11
-5.0704e-11
9.78114e-11
-5.34316e-11
1.11288e-10
-5.57423e-11
1.25197e-10
-5.76535e-11
1.39454e-10
-5.91837e-11
1.53978e-10
-6.03547e-11
1.68692e-10
-6.11905e-11
1.83526e-10
-6.17122e-11
1.9841e-10
-6.19445e-11
2.13284e-10
-6.19102e-11
2.2809e-10
-6.16306e-11
2.42773e-10
-6.11285e-11
2.57287e-10
-6.04244e-11
2.71588e-10
-5.95382e-11
2.85636e-10
-5.849e-11
2.99397e-10
-5.72978e-11
3.1284e-10
-5.59786e-11
3.25937e-10
-5.45497e-11
3.38667e-10
-5.30263e-11
3.51009e-10
-5.1423e-11
3.62947e-10
-4.97545e-11
3.74468e-10
-4.80337e-11
3.85561e-10
-4.62722e-11
3.96221e-10
-4.44818e-11
4.0644e-10
-4.26737e-11
4.16219e-10
-4.08568e-11
4.25556e-10
-3.90407e-11
4.34454e-10
-3.72344e-11
4.42917e-10
-3.54451e-11
4.50951e-10
-3.36796e-11
4.58562e-10
-3.19452e-11
4.6576e-10
-3.02473e-11
4.72557e-10
-2.85908e-11
4.78961e-10
-2.69807e-11
4.84986e-10
-2.54215e-11
4.90647e-10
-2.3916e-11
4.95956e-10
-2.24674e-11
5.00928e-10
-2.10787e-11
5.05579e-10
-1.97518e-11
5.09924e-10
-1.8488e-11
5.1398e-10
-1.72886e-11
5.17763e-10
-1.6155e-11
5.21288e-10
-1.50871e-11
5.24573e-10
-1.40844e-11
5.27634e-10
-1.31471e-11
5.30487e-10
-1.22748e-11
5.33148e-10
-1.14657e-11
5.35632e-10
-1.07184e-11
5.37955e-10
-1.00323e-11
5.40131e-10
-9.40508e-12
5.42176e-10
-8.83408e-12
5.44101e-10
-8.31712e-12
5.45919e-10
-7.85187e-12
5.47643e-10
-7.43533e-12
5.49286e-10
-7.06434e-12
5.50857e-10
-6.73582e-12
5.52365e-10
-6.4465e-12
5.53821e-10
-6.19268e-12
5.55232e-10
-5.97058e-12
5.56605e-10
-5.77689e-12
5.57946e-10
-5.60806e-12
5.59261e-10
-5.45957e-12
5.60553e-10
-5.32702e-12
5.61826e-10
-5.20686e-12
5.63081e-10
-5.09544e-12
5.64321e-10
-4.98839e-12
5.65544e-10
-4.88113e-12
5.6675e-10
-4.76969e-12
5.67937e-10
-4.65045e-12
5.69101e-10
-4.51913e-12
5.7024e-10
-4.37139e-12
5.71347e-10
-4.20332e-12
5.72416e-10
-4.01121e-12
5.7344e-10
-3.7913e-12
5.74413e-10
-3.53956e-12
5.75324e-10
-3.25252e-12
5.76163e-10
-2.92724e-12
5.76921e-10
-2.56002e-12
5.77585e-10
-2.14718e-12
5.78144e-10
-1.6859e-12
5.78585e-10
-1.17352e-12
5.78893e-10
-6.07493e-13
5.79056e-10
1.49716e-14
5.79057e-10
6.96619e-13
5.78882e-10
1.43921e-12
5.78515e-10
2.24427e-12
5.77939e-10
3.11382e-12
5.77138e-10
4.0493e-12
5.76096e-10
5.05159e-12
5.74795e-10
6.1215e-12
5.73219e-10
7.25942e-12
5.71349e-10
8.46584e-12
5.69169e-10
9.74095e-12
5.66663e-10
1.10838e-11
5.63812e-10
1.24934e-11
5.60601e-10
1.3969e-11
5.57013e-10
1.55094e-11
5.53032e-10
1.71128e-11
5.48644e-10
1.87771e-11
5.43834e-10
2.04994e-11
5.38589e-10
2.22767e-11
5.32895e-10
2.41061e-11
5.26741e-10
2.59833e-11
5.20115e-10
2.79035e-11
5.13009e-10
2.98627e-11
5.05414e-10
3.18556e-11
4.97323e-10
3.38759e-11
4.88732e-10
3.59178e-11
4.79635e-10
3.79745e-11
4.70033e-10
4.00386e-11
4.59924e-10
4.21028e-11
4.49311e-10
4.41588e-11
4.382e-10
4.61973e-11
4.26596e-10
4.82087e-11
4.14509e-10
5.01834e-11
4.01952e-10
5.21104e-11
3.88938e-10
5.39778e-11
3.75486e-10
5.5774e-11
3.61616e-10
5.74864e-11
3.47353e-10
5.9101e-11
3.32723e-10
6.06044e-11
3.17759e-10
6.19819e-11
3.02495e-10
6.32176e-11
2.86968e-10
6.42951e-11
2.71222e-10
6.51977e-11
2.55304e-10
6.59079e-11
2.39263e-10
6.64071e-11
2.23154e-10
6.66761e-11
2.07037e-10
6.66961e-11
1.90976e-10
6.64471e-11
1.75039e-10
6.59083e-11
1.59297e-10
6.50592e-11
1.43828e-10
6.38798e-11
1.2871e-10
6.23496e-11
1.14028e-10
6.04493e-11
9.98676e-11
5.81619e-11
8.63172e-11
5.54724e-11
7.34661e-11
5.23695e-11
6.14045e-11
4.88476e-11
5.02207e-11
4.49092e-11
3.99988e-11
4.05672e-11
3.08179e-11
3.58485e-11
2.27481e-11
3.08001e-11
1.58483e-11
2.54968e-11
1.01635e-11
2.00492e-11
5.72567e-12
1.46155e-11
2.55087e-12
9.41426e-12
6.42254e-13
4.74429e-12
1.05204e-12
7.9881e-13
-2.62596e-12
3.19257e-12
-7.84564e-12
7.07634e-12
-1.374e-11
1.23543e-11
-2.01951e-11
1.8959e-11
-2.68454e-11
2.68197e-11
-3.34171e-11
3.58654e-11
-3.97229e-11
4.60188e-11
-4.56429e-11
5.71936e-11
-5.11033e-11
6.93005e-11
-5.60592e-11
8.22446e-11
-6.04899e-11
9.59295e-11
-6.43883e-11
1.10259e-10
-6.77609e-11
1.25137e-10
-7.06216e-11
1.40472e-10
-7.2988e-11
1.56173e-10
-7.48843e-11
1.72153e-10
-7.63361e-11
1.88332e-10
-7.7369e-11
2.04631e-10
-7.8012e-11
2.20979e-10
-7.82928e-11
2.37308e-10
-7.82388e-11
2.53556e-10
-7.78785e-11
2.69665e-10
-7.72381e-11
2.85584e-10
-7.63428e-11
3.01264e-10
-7.52187e-11
3.16664e-10
-7.38894e-11
3.31744e-10
-7.23776e-11
3.46472e-10
-7.0706e-11
3.60817e-10
-6.8895e-11
3.74754e-10
-6.69637e-11
3.88263e-10
-6.49313e-11
4.01324e-10
-6.2816e-11
4.13924e-10
-6.06336e-11
4.26051e-10
-5.83995e-11
4.37698e-10
-5.6129e-11
4.48859e-10
-5.38351e-11
4.59532e-10
-5.153e-11
4.69717e-10
-4.92264e-11
4.79417e-10
-4.69345e-11
4.88636e-10
-4.46639e-11
4.97381e-10
-4.24243e-11
5.05659e-10
-4.02242e-11
5.13482e-10
-3.80699e-11
5.2086e-10
-3.59687e-11
5.27806e-10
-3.39272e-11
5.34334e-10
-3.19501e-11
5.4046e-10
-3.00415e-11
5.46199e-10
-2.82061e-11
5.51567e-10
-2.64471e-11
5.56582e-10
-2.47667e-11
5.61261e-10
-2.31673e-11
5.65622e-10
-2.16506e-11
5.69684e-10
-2.02171e-11
5.73465e-10
-1.88677e-11
5.76983e-10
-1.76025e-11
5.80257e-10
-1.64212e-11
5.83305e-10
-1.53225e-11
5.86144e-10
-1.43049e-11
5.88792e-10
-1.33669e-11
5.91267e-10
-1.25069e-11
5.93584e-10
-1.17221e-11
5.9576e-10
-1.10094e-11
5.97809e-10
-1.03663e-11
5.99746e-10
-9.78946e-12
6.01585e-10
-9.27473e-12
6.0334e-10
-8.81853e-12
6.05021e-10
-8.41703e-12
6.0664e-10
-8.06563e-12
6.08207e-10
-7.75956e-12
6.09731e-10
-7.49436e-12
6.11219e-10
-7.26557e-12
6.1268e-10
-7.0683e-12
6.14118e-10
-6.89711e-12
6.15538e-10
-6.74686e-12
6.16944e-10
-6.61273e-12
6.18337e-10
-6.48946e-12
6.1972e-10
-6.37141e-12
6.21093e-10
-6.2533e-12
6.22453e-10
-6.13011e-12
6.23799e-10
-5.99669e-12
6.25127e-10
-5.8475e-12
6.26434e-10
-5.67727e-12
6.27712e-10
-5.48123e-12
6.28954e-10
-5.25429e-12
6.30155e-10