/*--------------------------------*- C++ -*----------------------------------*\
  =========                 |
  \\      /  F ield         | OpenFOAM: The Open Source CFD Toolbox
   \\    /   O peration     | Website:  https://openfoam.org
    \\  /    A nd           | Version:  7
     \\/     M anipulation  |
\*---------------------------------------------------------------------------*/
FoamFile
{
    version     2.0;
    format      ascii;
    class       volVectorField;
    location    "0.4875";
    object      U;
}
// * * * * * * * * * * * * * * * * * * * * * * * * * * * * * * * * * * * * * //

dimensions      [0 1 -1 0 0 0 0];

internalField   nonuniform List<vector> 
51200
(
(4.31917e-08 6.73056e-08 0)
(-5.47066e-08 9.64977e-08 0)
(-9.39187e-08 4.44914e-08 0)
(-1.44187e-07 1.92402e-08 0)
(-1.15458e-07 -2.41809e-09 0)
(-5.00579e-08 -1.83794e-08 0)
(4.79537e-08 -3.08071e-08 0)
(1.74384e-07 -4.01384e-08 0)
(3.25205e-07 -4.81104e-08 0)
(4.96767e-07 -5.42653e-08 0)
(6.86592e-07 -5.94949e-08 0)
(8.91471e-07 -6.39555e-08 0)
(1.10971e-06 -6.75392e-08 0)
(1.33873e-06 -7.0449e-08 0)
(1.57629e-06 -7.27171e-08 0)
(1.82098e-06 -7.43137e-08 0)
(2.07092e-06 -7.55455e-08 0)
(2.32458e-06 -7.64867e-08 0)
(2.58081e-06 -7.68558e-08 0)
(2.83804e-06 -7.68414e-08 0)
(3.09503e-06 -7.65071e-08 0)
(3.35116e-06 -7.57008e-08 0)
(3.60524e-06 -7.48214e-08 0)
(3.85621e-06 -7.38151e-08 0)
(4.10376e-06 -7.25694e-08 0)
(4.34697e-06 -7.11581e-08 0)
(4.58512e-06 -6.96261e-08 0)
(4.81802e-06 -6.80133e-08 0)
(5.04514e-06 -6.62434e-08 0)
(5.26597e-06 -6.43525e-08 0)
(5.48023e-06 -6.24626e-08 0)
(5.68767e-06 -6.04036e-08 0)
(5.88808e-06 -5.81307e-08 0)
(6.0813e-06 -5.59374e-08 0)
(6.26726e-06 -5.38249e-08 0)
(6.44596e-06 -5.16138e-08 0)
(6.61725e-06 -4.94055e-08 0)
(6.78104e-06 -4.72867e-08 0)
(6.93757e-06 -4.51919e-08 0)
(7.08694e-06 -4.31062e-08 0)
(7.22909e-06 -4.10241e-08 0)
(7.36419e-06 -3.89377e-08 0)
(7.49241e-06 -3.69079e-08 0)
(7.6139e-06 -3.49392e-08 0)
(7.72886e-06 -3.29996e-08 0)
(7.83746e-06 -3.11642e-08 0)
(7.93988e-06 -2.9473e-08 0)
(8.03641e-06 -2.77609e-08 0)
(8.12724e-06 -2.60133e-08 0)
(8.21253e-06 -2.4363e-08 0)
(8.29257e-06 -2.28971e-08 0)
(8.36771e-06 -2.15693e-08 0)
(8.43817e-06 -2.02758e-08 0)
(8.50415e-06 -1.90193e-08 0)
(8.56589e-06 -1.78287e-08 0)
(8.62368e-06 -1.66818e-08 0)
(8.67783e-06 -1.56121e-08 0)
(8.72849e-06 -1.46353e-08 0)
(8.77586e-06 -1.36884e-08 0)
(8.82029e-06 -1.27744e-08 0)
(8.862e-06 -1.19406e-08 0)
(8.90114e-06 -1.11719e-08 0)
(8.93796e-06 -1.0486e-08 0)
(8.97267e-06 -9.95242e-09 0)
(9.00533e-06 -9.53706e-09 0)
(9.0362e-06 -9.11213e-09 0)
(9.06555e-06 -8.61394e-09 0)
(9.09341e-06 -8.10415e-09 0)
(9.11991e-06 -7.66579e-09 0)
(9.1453e-06 -7.29558e-09 0)
(9.1697e-06 -6.95559e-09 0)
(9.19309e-06 -6.64989e-09 0)
(9.21555e-06 -6.39051e-09 0)
(9.23719e-06 -6.17575e-09 0)
(9.2581e-06 -6.00081e-09 0)
(9.27825e-06 -5.81869e-09 0)
(9.29766e-06 -5.56352e-09 0)
(9.31638e-06 -5.23797e-09 0)
(9.33446e-06 -4.92741e-09 0)
(9.35183e-06 -4.69692e-09 0)
(9.36843e-06 -4.50538e-09 0)
(9.38421e-06 -4.27999e-09 0)
(9.39909e-06 -4.00716e-09 0)
(9.41296e-06 -3.71029e-09 0)
(9.42577e-06 -3.37094e-09 0)
(9.43744e-06 -2.94557e-09 0)
(9.44788e-06 -2.46056e-09 0)
(9.45688e-06 -1.97391e-09 0)
(9.46426e-06 -1.49405e-09 0)
(9.46993e-06 -9.8955e-10 0)
(9.47371e-06 -4.20112e-10 0)
(9.47535e-06 2.21207e-10 0)
(9.47465e-06 9.33052e-10 0)
(9.47144e-06 1.73567e-09 0)
(9.46556e-06 2.58996e-09 0)
(9.4568e-06 3.46013e-09 0)
(9.44487e-06 4.39995e-09 0)
(9.42952e-06 5.44628e-09 0)
(9.41049e-06 6.58639e-09 0)
(9.38751e-06 7.77365e-09 0)
(9.36038e-06 8.97653e-09 0)
(9.32883e-06 1.02741e-08 0)
(9.29262e-06 1.17252e-08 0)
(9.25149e-06 1.32626e-08 0)
(9.20512e-06 1.48224e-08 0)
(9.15328e-06 1.63993e-08 0)
(9.09577e-06 1.8033e-08 0)
(9.03234e-06 1.97827e-08 0)
(8.96275e-06 2.16308e-08 0)
(8.88677e-06 2.35262e-08 0)
(8.80406e-06 2.54938e-08 0)
(8.71445e-06 2.75478e-08 0)
(8.61774e-06 2.96634e-08 0)
(8.51374e-06 3.18436e-08 0)
(8.40233e-06 3.40662e-08 0)
(8.28336e-06 3.63096e-08 0)
(8.15657e-06 3.85788e-08 0)
(8.02188e-06 4.08363e-08 0)
(7.87915e-06 4.30909e-08 0)
(7.72828e-06 4.54345e-08 0)
(7.56931e-06 4.78769e-08 0)
(7.40224e-06 5.03286e-08 0)
(7.22703e-06 5.27296e-08 0)
(7.04375e-06 5.50823e-08 0)
(6.85241e-06 5.74361e-08 0)
(6.65303e-06 5.98214e-08 0)
(6.44585e-06 6.21398e-08 0)
(6.23107e-06 6.42858e-08 0)
(6.00885e-06 6.63188e-08 0)
(5.77951e-06 6.83134e-08 0)
(5.54345e-06 7.02547e-08 0)
(5.30096e-06 7.21514e-08 0)
(5.05253e-06 7.39784e-08 0)
(4.79874e-06 7.56159e-08 0)
(4.54009e-06 7.6998e-08 0)
(4.2772e-06 7.81426e-08 0)
(4.01083e-06 7.90469e-08 0)
(3.74172e-06 7.97065e-08 0)
(3.4707e-06 8.01321e-08 0)
(3.19884e-06 8.02828e-08 0)
(2.92726e-06 8.01122e-08 0)
(2.65703e-06 7.96342e-08 0)
(2.38947e-06 7.88135e-08 0)
(2.12599e-06 7.75183e-08 0)
(1.86806e-06 7.56557e-08 0)
(1.61732e-06 7.32243e-08 0)
(1.37559e-06 7.02373e-08 0)
(1.1447e-06 6.66644e-08 0)
(9.2673e-07 6.24292e-08 0)
(7.24002e-07 5.74243e-08 0)
(5.38922e-07 5.15659e-08 0)
(3.73865e-07 4.4845e-08 0)
(2.31377e-07 3.72326e-08 0)
(1.14147e-07 2.86155e-08 0)
(2.46188e-08 1.89715e-08 0)
(-3.5236e-08 8.54109e-09 0)
(-6.42891e-08 -2.14574e-09 0)
(-6.35836e-08 -1.18602e-08 0)
(-4.02834e-08 -1.75492e-08 0)
(-1.22841e-08 -1.23634e-08 0)
(6.40864e-08 2.11041e-08 0)
(5.22342e-08 1.33872e-07 0)
(1.09449e-08 6.10978e-08 0)
(3.63861e-08 -1.12534e-08 0)
(1.47873e-07 -8.7311e-08 0)
(3.4139e-07 -1.56188e-07 0)
(6.13492e-07 -2.16311e-07 0)
(9.57203e-07 -2.68584e-07 0)
(1.36541e-06 -3.13863e-07 0)
(1.83131e-06 -3.52779e-07 0)
(2.34702e-06 -3.86327e-07 0)
(2.90667e-06 -4.14667e-07 0)
(3.50332e-06 -4.3862e-07 0)
(4.13123e-06 -4.58515e-07 0)
(4.78525e-06 -4.74425e-07 0)
(5.45973e-06 -4.86775e-07 0)
(6.15027e-06 -4.96042e-07 0)
(6.85272e-06 -5.02291e-07 0)
(7.56269e-06 -5.06016e-07 0)
(8.27673e-06 -5.07429e-07 0)
(8.99183e-06 -5.06313e-07 0)
(9.70449e-06 -5.0322e-07 0)
(1.04121e-05 -4.98547e-07 0)
(1.11126e-05 -4.92184e-07 0)
(1.18036e-05 -4.84419e-07 0)
(1.2483e-05 -4.75521e-07 0)
(1.31493e-05 -4.65417e-07 0)
(1.38007e-05 -4.5434e-07 0)
(1.44361e-05 -4.42432e-07 0)
(1.50545e-05 -4.29873e-07 0)
(1.56548e-05 -4.16843e-07 0)
(1.62363e-05 -4.03258e-07 0)
(1.67984e-05 -3.89201e-07 0)
(1.73404e-05 -3.74968e-07 0)
(1.78622e-05 -3.60543e-07 0)
(1.83636e-05 -3.45958e-07 0)
(1.88442e-05 -3.31441e-07 0)
(1.93043e-05 -3.16959e-07 0)
(1.97438e-05 -3.02515e-07 0)
(2.01629e-05 -2.88285e-07 0)
(2.05619e-05 -2.74288e-07 0)
(2.09411e-05 -2.60521e-07 0)
(2.13008e-05 -2.47059e-07 0)
(2.16415e-05 -2.33885e-07 0)
(2.19639e-05 -2.21053e-07 0)
(2.22682e-05 -2.08672e-07 0)
(2.25552e-05 -1.96776e-07 0)
(2.28255e-05 -1.85238e-07 0)
(2.30798e-05 -1.74122e-07 0)
(2.33186e-05 -1.63512e-07 0)
(2.35427e-05 -1.53413e-07 0)
(2.37528e-05 -1.43834e-07 0)
(2.39497e-05 -1.34776e-07 0)
(2.41339e-05 -1.26265e-07 0)
(2.43063e-05 -1.18243e-07 0)
(2.44677e-05 -1.10621e-07 0)
(2.46185e-05 -1.03497e-07 0)
(2.47597e-05 -9.6938e-08 0)
(2.48918e-05 -9.08041e-08 0)
(2.50155e-05 -8.50694e-08 0)
(2.51314e-05 -7.97925e-08 0)
(2.52402e-05 -7.48762e-08 0)
(2.53426e-05 -7.03396e-08 0)
(2.5439e-05 -6.63559e-08 0)
(2.553e-05 -6.28347e-08 0)
(2.56162e-05 -5.95607e-08 0)
(2.5698e-05 -5.65404e-08 0)
(2.57758e-05 -5.38349e-08 0)
(2.58499e-05 -5.13823e-08 0)
(2.59209e-05 -4.91245e-08 0)
(2.5989e-05 -4.70819e-08 0)
(2.60546e-05 -4.52579e-08 0)
(2.61177e-05 -4.35804e-08 0)
(2.61788e-05 -4.20066e-08 0)
(2.62379e-05 -4.05828e-08 0)
(2.6295e-05 -3.92746e-08 0)
(2.63504e-05 -3.79314e-08 0)
(2.6404e-05 -3.64871e-08 0)
(2.64558e-05 -3.50132e-08 0)
(2.65055e-05 -3.35481e-08 0)
(2.65534e-05 -3.20112e-08 0)
(2.65993e-05 -3.03429e-08 0)
(2.66428e-05 -2.85558e-08 0)
(2.66836e-05 -2.66391e-08 0)
(2.67216e-05 -2.45017e-08 0)
(2.67564e-05 -2.20386e-08 0)
(2.67878e-05 -1.92763e-08 0)
(2.68152e-05 -1.6283e-08 0)
(2.68383e-05 -1.3012e-08 0)
(2.68565e-05 -9.40418e-09 0)
(2.68695e-05 -5.45551e-09 0)
(2.68766e-05 -1.14828e-09 0)
(2.68773e-05 3.5638e-09 0)
(2.6871e-05 8.75263e-09 0)
(2.6857e-05 1.43983e-08 0)
(2.68348e-05 2.04314e-08 0)
(2.68036e-05 2.69142e-08 0)
(2.67629e-05 3.39159e-08 0)
(2.67118e-05 4.14322e-08 0)
(2.66497e-05 4.94334e-08 0)
(2.65757e-05 5.78789e-08 0)
(2.64893e-05 6.6839e-08 0)
(2.63896e-05 7.63984e-08 0)
(2.62759e-05 8.64799e-08 0)
(2.61475e-05 9.70064e-08 0)
(2.60037e-05 1.07991e-07 0)
(2.58437e-05 1.19461e-07 0)
(2.56668e-05 1.31481e-07 0)
(2.54723e-05 1.44047e-07 0)
(2.52595e-05 1.57039e-07 0)
(2.50279e-05 1.70432e-07 0)
(2.47768e-05 1.84256e-07 0)
(2.45056e-05 1.98468e-07 0)
(2.42135e-05 2.13074e-07 0)
(2.39003e-05 2.28067e-07 0)
(2.35656e-05 2.43358e-07 0)
(2.32088e-05 2.58898e-07 0)
(2.28296e-05 2.74609e-07 0)
(2.24278e-05 2.90412e-07 0)
(2.2003e-05 3.0638e-07 0)
(2.15551e-05 3.22564e-07 0)
(2.10842e-05 3.38832e-07 0)
(2.05902e-05 3.55017e-07 0)
(2.00733e-05 3.7103e-07 0)
(1.95337e-05 3.86836e-07 0)
(1.89716e-05 4.02447e-07 0)
(1.83875e-05 4.17783e-07 0)
(1.77819e-05 4.32631e-07 0)
(1.71557e-05 4.46883e-07 0)
(1.65095e-05 4.60528e-07 0)
(1.58445e-05 4.73457e-07 0)
(1.51616e-05 4.85575e-07 0)
(1.44622e-05 4.96832e-07 0)
(1.37477e-05 5.07061e-07 0)
(1.302e-05 5.16046e-07 0)
(1.22806e-05 5.2364e-07 0)
(1.15318e-05 5.29697e-07 0)
(1.07758e-05 5.34047e-07 0)
(1.00151e-05 5.36555e-07 0)
(9.25245e-06 5.37079e-07 0)
(8.49095e-06 5.35403e-07 0)
(7.73384e-06 5.31326e-07 0)
(6.98465e-06 5.24666e-07 0)
(6.2473e-06 5.15163e-07 0)
(5.52596e-06 5.02492e-07 0)
(4.8251e-06 4.86363e-07 0)
(4.14953e-06 4.66571e-07 0)
(3.50436e-06 4.42914e-07 0)
(2.89508e-06 4.15126e-07 0)
(2.32748e-06 3.82911e-07 0)
(1.80755e-06 3.45999e-07 0)
(1.3413e-06 3.04229e-07 0)
(9.3471e-07 2.57611e-07 0)
(5.93538e-07 2.06341e-07 0)
(3.22712e-07 1.51031e-07 0)
(1.25483e-07 9.32009e-08 0)
(2.37874e-09 3.59378e-08 0)
(-5.08272e-08 -1.48665e-08 0)
(-4.79746e-08 -4.78601e-08 0)
(-1.75574e-08 -4.04491e-08 0)
(2.46453e-08 1.92998e-08 0)
(5.0434e-08 7.77192e-08 0)
(1.29844e-07 3.51898e-09 0)
(2.73585e-07 -1.40521e-07 0)
(5.15857e-07 -3.05669e-07 0)
(8.65601e-07 -4.68393e-07 0)
(1.32156e-06 -6.19866e-07 0)
(1.87918e-06 -7.57075e-07 0)
(2.53114e-06 -8.79013e-07 0)
(3.26793e-06 -9.86773e-07 0)
(4.08117e-06 -1.08022e-06 0)
(4.96062e-06 -1.16076e-06 0)
(5.89748e-06 -1.22917e-06 0)
(6.88343e-06 -1.2859e-06 0)
(7.90977e-06 -1.33228e-06 0)
(8.96895e-06 -1.36887e-06 0)
(1.00539e-05 -1.39617e-06 0)
(1.11576e-05 -1.41544e-06 0)
(1.22739e-05 -1.42719e-06 0)
(1.33976e-05 -1.4318e-06 0)
(1.45229e-05 -1.43025e-06 0)
(1.56451e-05 -1.42311e-06 0)
(1.67604e-05 -1.4106e-06 0)
(1.78644e-05 -1.39351e-06 0)
(1.89537e-05 -1.37241e-06 0)
(2.00256e-05 -1.34754e-06 0)
(2.10768e-05 -1.31958e-06 0)
(2.21052e-05 -1.28884e-06 0)
(2.31085e-05 -1.25552e-06 0)
(2.4085e-05 -1.22019e-06 0)
(2.50331e-05 -1.1832e-06 0)
(2.59518e-05 -1.1448e-06 0)
(2.68398e-05 -1.10539e-06 0)
(2.76964e-05 -1.06514e-06 0)
(2.85209e-05 -1.02424e-06 0)
(2.9313e-05 -9.83047e-07 0)
(3.00725e-05 -9.41743e-07 0)
(3.07994e-05 -9.00458e-07 0)
(3.14937e-05 -8.59476e-07 0)
(3.21557e-05 -8.18936e-07 0)
(3.27859e-05 -7.78925e-07 0)
(3.33845e-05 -7.39702e-07 0)
(3.39524e-05 -7.01357e-07 0)
(3.44902e-05 -6.63863e-07 0)
(3.49987e-05 -6.27412e-07 0)
(3.54786e-05 -5.92159e-07 0)
(3.59311e-05 -5.58069e-07 0)
(3.63572e-05 -5.25207e-07 0)
(3.67577e-05 -4.93722e-07 0)
(3.71337e-05 -4.63621e-07 0)
(3.74864e-05 -4.34854e-07 0)
(3.78169e-05 -4.07493e-07 0)
(3.81263e-05 -3.81627e-07 0)
(3.84158e-05 -3.57214e-07 0)
(3.86866e-05 -3.34205e-07 0)
(3.89397e-05 -3.12605e-07 0)
(3.91763e-05 -2.92408e-07 0)
(3.93976e-05 -2.73603e-07 0)
(3.96047e-05 -2.56205e-07 0)
(3.97985e-05 -2.40181e-07 0)
(3.99802e-05 -2.25385e-07 0)
(4.01508e-05 -2.11683e-07 0)
(4.03112e-05 -1.99118e-07 0)
(4.04621e-05 -1.87754e-07 0)
(4.06048e-05 -1.77452e-07 0)
(4.07399e-05 -1.68095e-07 0)
(4.08683e-05 -1.59725e-07 0)
(4.09904e-05 -1.52265e-07 0)
(4.11072e-05 -1.45516e-07 0)
(4.12191e-05 -1.39417e-07 0)
(4.13267e-05 -1.33961e-07 0)
(4.14304e-05 -1.29021e-07 0)
(4.15306e-05 -1.24459e-07 0)
(4.16276e-05 -1.20236e-07 0)
(4.17216e-05 -1.16326e-07 0)
(4.1813e-05 -1.12625e-07 0)
(4.19019e-05 -1.09006e-07 0)
(4.19882e-05 -1.05396e-07 0)
(4.20717e-05 -1.01715e-07 0)
(4.21524e-05 -9.78274e-08 0)
(4.22304e-05 -9.36052e-08 0)
(4.23052e-05 -8.90216e-08 0)
(4.23765e-05 -8.4093e-08 0)
(4.2444e-05 -7.8709e-08 0)
(4.25072e-05 -7.27059e-08 0)
(4.25656e-05 -6.59987e-08 0)
(4.26187e-05 -5.85437e-08 0)
(4.26657e-05 -5.02734e-08 0)
(4.27059e-05 -4.10842e-08 0)
(4.27387e-05 -3.09017e-08 0)
(4.27632e-05 -1.97109e-08 0)
(4.27785e-05 -7.43889e-09 0)
(4.27838e-05 6.0023e-09 0)
(4.27781e-05 2.06586e-08 0)
(4.27603e-05 3.65746e-08 0)
(4.27294e-05 5.37812e-08 0)
(4.26844e-05 7.23582e-08 0)
(4.26242e-05 9.23606e-08 0)
(4.25476e-05 1.13742e-07 0)
(4.24535e-05 1.36519e-07 0)
(4.23406e-05 1.60745e-07 0)
(4.2208e-05 1.8644e-07 0)
(4.20542e-05 2.13672e-07 0)
(4.18782e-05 2.42425e-07 0)
(4.16787e-05 2.72605e-07 0)
(4.14546e-05 3.04211e-07 0)
(4.12048e-05 3.37241e-07 0)
(4.0928e-05 3.71657e-07 0)
(4.06231e-05 4.07514e-07 0)
(4.02891e-05 4.44771e-07 0)
(3.9925e-05 4.83268e-07 0)
(3.95298e-05 5.22935e-07 0)
(3.91024e-05 5.63673e-07 0)
(3.86421e-05 6.05407e-07 0)
(3.8148e-05 6.48188e-07 0)
(3.76194e-05 6.91932e-07 0)
(3.70557e-05 7.36436e-07 0)
(3.64561e-05 7.81566e-07 0)
(3.58205e-05 8.27155e-07 0)
(3.51484e-05 8.73046e-07 0)
(3.44397e-05 9.19186e-07 0)
(3.36941e-05 9.65446e-07 0)
(3.29118e-05 1.01156e-06 0)
(3.20931e-05 1.05732e-06 0)
(3.12382e-05 1.10253e-06 0)
(3.03476e-05 1.14693e-06 0)
(2.94222e-05 1.19036e-06 0)
(2.84627e-05 1.23259e-06 0)
(2.74705e-05 1.2733e-06 0)
(2.64468e-05 1.31221e-06 0)
(2.53932e-05 1.34901e-06 0)
(2.43115e-05 1.38333e-06 0)
(2.32039e-05 1.41487e-06 0)
(2.20727e-05 1.44336e-06 0)
(2.09205e-05 1.46838e-06 0)
(1.97504e-05 1.48946e-06 0)
(1.85656e-05 1.50619e-06 0)
(1.73697e-05 1.51816e-06 0)
(1.61667e-05 1.52488e-06 0)
(1.49611e-05 1.52581e-06 0)
(1.37577e-05 1.52044e-06 0)
(1.25615e-05 1.50818e-06 0)
(1.13782e-05 1.48846e-06 0)
(1.02139e-05 1.4607e-06 0)
(9.07481e-06 1.42429e-06 0)
(7.96806e-06 1.37849e-06 0)
(6.90101e-06 1.32263e-06 0)
(5.88133e-06 1.25619e-06 0)
(4.91717e-06 1.17857e-06 0)
(4.01707e-06 1.08919e-06 0)
(3.18968e-06 9.87648e-07 0)
(2.44351e-06 8.73808e-07 0)
(1.78691e-06 7.48001e-07 0)
(1.22754e-06 6.11285e-07 0)
(7.71532e-07 4.65944e-07 0)
(4.22547e-07 3.16327e-07 0)
(1.80495e-07 1.7016e-07 0)
(3.94263e-08 4.04839e-08 0)
(-1.5622e-08 -5.08304e-08 0)
(-1.21046e-08 -6.39733e-08 0)
(1.90286e-08 -4.04767e-08 0)
(8.14849e-08 -2.71037e-08 0)
(2.49137e-07 -1.6559e-07 0)
(5.16402e-07 -4.04288e-07 0)
(9.03743e-07 -6.80627e-07 0)
(1.41962e-06 -9.61281e-07 0)
(2.06467e-06 -1.22955e-06 0)
(2.8342e-06 -1.4772e-06 0)
(3.71968e-06 -1.70195e-06 0)
(4.71232e-06 -1.90192e-06 0)
(5.80076e-06 -2.07791e-06 0)
(6.974e-06 -2.23068e-06 0)
(8.22126e-06 -2.36071e-06 0)
(9.53148e-06 -2.46989e-06 0)
(1.08945e-05 -2.55927e-06 0)
(1.23007e-05 -2.62997e-06 0)
(1.37404e-05 -2.68373e-06 0)
(1.5205e-05 -2.72176e-06 0)
(1.66868e-05 -2.74498e-06 0)
(1.8178e-05 -2.75496e-06 0)
(1.96718e-05 -2.75306e-06 0)
(2.11623e-05 -2.73991e-06 0)
(2.26434e-05 -2.71689e-06 0)
(2.411e-05 -2.68494e-06 0)
(2.55576e-05 -2.64482e-06 0)
(2.69818e-05 -2.59765e-06 0)
(2.83791e-05 -2.5443e-06 0)
(2.97462e-05 -2.4854e-06 0)
(3.10802e-05 -2.42179e-06 0)
(3.23786e-05 -2.35413e-06 0)
(3.36395e-05 -2.28296e-06 0)
(3.48611e-05 -2.20911e-06 0)
(3.6042e-05 -2.13316e-06 0)
(3.71811e-05 -2.0555e-06 0)
(3.82775e-05 -1.9767e-06 0)
(3.93307e-05 -1.8972e-06 0)
(4.03404e-05 -1.81738e-06 0)
(4.13066e-05 -1.73771e-06 0)
(4.22292e-05 -1.65847e-06 0)
(4.31088e-05 -1.57998e-06 0)
(4.39458e-05 -1.50263e-06 0)
(4.47407e-05 -1.4267e-06 0)
(4.54945e-05 -1.35233e-06 0)
(4.62081e-05 -1.27977e-06 0)
(4.68825e-05 -1.20928e-06 0)
(4.75188e-05 -1.14098e-06 0)
(4.81184e-05 -1.07489e-06 0)
(4.86825e-05 -1.0113e-06 0)
(4.92126e-05 -9.50371e-07 0)
(4.971e-05 -8.92111e-07 0)
(5.01763e-05 -8.36499e-07 0)
(5.0613e-05 -7.83632e-07 0)
(5.10215e-05 -7.33598e-07 0)
(5.14035e-05 -6.86366e-07 0)
(5.17605e-05 -6.41938e-07 0)
(5.2094e-05 -6.00286e-07 0)
(5.24057e-05 -5.61288e-07 0)
(5.26969e-05 -5.24965e-07 0)
(5.29692e-05 -4.91385e-07 0)
(5.32241e-05 -4.60402e-07 0)
(5.3463e-05 -4.31847e-07 0)
(5.36873e-05 -4.0571e-07 0)
(5.38981e-05 -3.81927e-07 0)
(5.40967e-05 -3.60284e-07 0)
(5.42844e-05 -3.40597e-07 0)
(5.44623e-05 -3.22821e-07 0)
(5.46313e-05 -3.0692e-07 0)
(5.47925e-05 -2.92706e-07 0)
(5.49468e-05 -2.79958e-07 0)
(5.50949e-05 -2.68561e-07 0)
(5.52376e-05 -2.58384e-07 0)
(5.53755e-05 -2.49215e-07 0)
(5.55091e-05 -2.40903e-07 0)
(5.56387e-05 -2.33304e-07 0)
(5.57648e-05 -2.26186e-07 0)
(5.58877e-05 -2.19342e-07 0)
(5.60076e-05 -2.12685e-07 0)
(5.61243e-05 -2.06142e-07 0)
(5.62379e-05 -1.99491e-07 0)
(5.63483e-05 -1.92436e-07 0)
(5.64552e-05 -1.84803e-07 0)
(5.65582e-05 -1.76494e-07 0)
(5.66569e-05 -1.6738e-07 0)
(5.67508e-05 -1.5725e-07 0)
(5.68394e-05 -1.45916e-07 0)
(5.69219e-05 -1.3328e-07 0)
(5.69976e-05 -1.19202e-07 0)
(5.70655e-05 -1.03492e-07 0)
(5.71247e-05 -8.60225e-08 0)
(5.71742e-05 -6.66686e-08 0)
(5.72127e-05 -4.52792e-08 0)
(5.72393e-05 -2.16978e-08 0)
(5.72527e-05 4.18152e-09 0)
(5.72516e-05 3.23867e-08 0)
(5.72345e-05 6.30263e-08 0)
(5.72e-05 9.62564e-08 0)
(5.71469e-05 1.32153e-07 0)
(5.70734e-05 1.70763e-07 0)
(5.69781e-05 2.1211e-07 0)
(5.68594e-05 2.56252e-07 0)
(5.67158e-05 3.03287e-07 0)
(5.65456e-05 3.53198e-07 0)
(5.63473e-05 4.05961e-07 0)
(5.61193e-05 4.61641e-07 0)
(5.58597e-05 5.20227e-07 0)
(5.55672e-05 5.81653e-07 0)
(5.52401e-05 6.45879e-07 0)
(5.4877e-05 7.12801e-07 0)
(5.44762e-05 7.8238e-07 0)
(5.40363e-05 8.54643e-07 0)
(5.35559e-05 9.29417e-07 0)
(5.30337e-05 1.0065e-06 0)
(5.24684e-05 1.08578e-06 0)
(5.18588e-05 1.16706e-06 0)
(5.12041e-05 1.2502e-06 0)
(5.0503e-05 1.33505e-06 0)
(4.97546e-05 1.42138e-06 0)
(4.89583e-05 1.50895e-06 0)
(4.81134e-05 1.59754e-06 0)
(4.72197e-05 1.68683e-06 0)
(4.62768e-05 1.77642e-06 0)
(4.52845e-05 1.86608e-06 0)
(4.4243e-05 1.95548e-06 0)
(4.31526e-05 2.04418e-06 0)
(4.20137e-05 2.13177e-06 0)
(4.08273e-05 2.21779e-06 0)
(3.95941e-05 2.3018e-06 0)
(3.83156e-05 2.38338e-06 0)
(3.69933e-05 2.46204e-06 0)
(3.56289e-05 2.53717e-06 0)
(3.42246e-05 2.60817e-06 0)
(3.2783e-05 2.67438e-06 0)
(3.13069e-05 2.73514e-06 0)
(2.97995e-05 2.78977e-06 0)
(2.82643e-05 2.83758e-06 0)
(2.67054e-05 2.87778e-06 0)
(2.51272e-05 2.90951e-06 0)
(2.35345e-05 2.93195e-06 0)
(2.19326e-05 2.94426e-06 0)
(2.03274e-05 2.94544e-06 0)
(1.87253e-05 2.93446e-06 0)
(1.7133e-05 2.91027e-06 0)
(1.55578e-05 2.87179e-06 0)
(1.40078e-05 2.8179e-06 0)
(1.24913e-05 2.74754e-06 0)
(1.10171e-05 2.65957e-06 0)
(9.59488e-06 2.55283e-06 0)
(8.23444e-06 2.42625e-06 0)
(6.94597e-06 2.27896e-06 0)
(5.74e-06 2.11019e-06 0)
(4.62719e-06 1.91949e-06 0)
(3.61797e-06 1.70696e-06 0)
(2.72218e-06 1.47366e-06 0)
(1.94872e-06 1.22198e-06 0)
(1.30467e-06 9.56364e-07 0)
(7.94217e-07 6.84553e-07 0)
(4.17381e-07 4.19439e-07 0)
(1.6831e-07 1.81275e-07 0)
(3.47633e-08 1.68405e-09 0)
(-2.52978e-09 -6.51798e-08 0)
(1.87146e-08 -8.12752e-08 0)
(1.19575e-07 -1.85861e-07 0)
(3.74919e-07 -4.37694e-07 0)
(7.66364e-07 -8.01733e-07 0)
(1.30108e-06 -1.21352e-06 0)
(1.98527e-06 -1.63272e-06 0)
(2.81799e-06 -2.03689e-06 0)
(3.79305e-06 -2.4152e-06 0)
(4.90245e-06 -2.76047e-06 0)
(6.13524e-06 -3.071e-06 0)
(7.47961e-06 -3.346e-06 0)
(8.92356e-06 -3.58556e-06 0)
(1.04542e-05 -3.79121e-06 0)
(1.20594e-05 -3.96426e-06 0)
(1.37274e-05 -4.10631e-06 0)
(1.54464e-05 -4.21956e-06 0)
(1.72056e-05 -4.30602e-06 0)
(1.8995e-05 -4.36728e-06 0)
(2.08047e-05 -4.40537e-06 0)
(2.26257e-05 -4.42236e-06 0)
(2.44501e-05 -4.41979e-06 0)
(2.62701e-05 -4.39956e-06 0)
(2.80789e-05 -4.3634e-06 0)
(2.98703e-05 -4.31273e-06 0)
(3.16384e-05 -4.24912e-06 0)
(3.33781e-05 -4.17403e-06 0)
(3.5085e-05 -4.08869e-06 0)
(3.67551e-05 -3.99451e-06 0)
(3.83848e-05 -3.89268e-06 0)
(3.99711e-05 -3.78419e-06 0)
(4.15114e-05 -3.67015e-06 0)
(4.30036e-05 -3.5516e-06 0)
(4.4446e-05 -3.4294e-06 0)
(4.58371e-05 -3.30448e-06 0)
(4.71759e-05 -3.17767e-06 0)
(4.84617e-05 -3.04961e-06 0)
(4.96941e-05 -2.92107e-06 0)
(5.08731e-05 -2.7927e-06 0)
(5.19988e-05 -2.66497e-06 0)
(5.30714e-05 -2.5385e-06 0)
(5.40917e-05 -2.41383e-06 0)
(5.50603e-05 -2.29128e-06 0)
(5.59785e-05 -2.17127e-06 0)
(5.68472e-05 -2.05428e-06 0)
(5.76677e-05 -1.94057e-06 0)
(5.84416e-05 -1.83033e-06 0)
(5.91703e-05 -1.72383e-06 0)
(5.98554e-05 -1.62133e-06 0)
(6.04986e-05 -1.52299e-06 0)
(6.11019e-05 -1.42896e-06 0)
(6.1667e-05 -1.33935e-06 0)
(6.21957e-05 -1.25421e-06 0)
(6.269e-05 -1.17359e-06 0)
(6.31517e-05 -1.09752e-06 0)
(6.3583e-05 -1.02602e-06 0)
(6.39856e-05 -9.59041e-07 0)
(6.43616e-05 -8.96475e-07 0)
(6.47127e-05 -8.38324e-07 0)
(6.50407e-05 -7.84508e-07 0)
(6.53476e-05 -7.34766e-07 0)
(6.56351e-05 -6.89007e-07 0)
(6.59049e-05 -6.47268e-07 0)
(6.61586e-05 -6.09331e-07 0)
(6.63977e-05 -5.74877e-07 0)
(6.66239e-05 -5.43755e-07 0)
(6.68383e-05 -5.15801e-07 0)
(6.70422e-05 -4.90751e-07 0)
(6.72371e-05 -4.68378e-07 0)
(6.74239e-05 -4.48474e-07 0)
(6.76035e-05 -4.3077e-07 0)
(6.7777e-05 -4.14972e-07 0)
(6.79451e-05 -4.00837e-07 0)
(6.81084e-05 -3.88171e-07 0)
(6.82675e-05 -3.7669e-07 0)
(6.84228e-05 -3.66005e-07 0)
(6.85747e-05 -3.55806e-07 0)
(6.87232e-05 -3.45898e-07 0)
(6.88684e-05 -3.36059e-07 0)
(6.90104e-05 -3.25961e-07 0)
(6.9149e-05 -3.15265e-07 0)
(6.92838e-05 -3.03745e-07 0)
(6.94144e-05 -2.91169e-07 0)
(6.95402e-05 -2.77209e-07 0)
(6.96607e-05 -2.61555e-07 0)
(6.97751e-05 -2.43965e-07 0)
(6.98825e-05 -2.24232e-07 0)
(6.99819e-05 -2.02105e-07 0)
(7.00722e-05 -1.77301e-07 0)
(7.01522e-05 -1.49637e-07 0)
(7.02207e-05 -1.18927e-07 0)
(7.02762e-05 -8.48918e-08 0)
(7.03173e-05 -4.72929e-08 0)
(7.03425e-05 -5.96819e-09 0)
(7.03501e-05 3.9194e-08 0)
(7.03383e-05 8.83484e-08 0)
(7.03055e-05 1.41719e-07 0)
(7.02499e-05 1.99427e-07 0)
(7.01695e-05 2.61521e-07 0)
(7.00625e-05 3.28092e-07 0)
(6.99268e-05 3.99251e-07 0)
(6.97606e-05 4.75115e-07 0)
(6.95618e-05 5.55714e-07 0)
(6.93284e-05 6.40978e-07 0)
(6.90585e-05 7.30909e-07 0)
(6.87499e-05 8.2555e-07 0)
(6.84007e-05 9.24833e-07 0)
(6.80089e-05 1.02868e-06 0)
(6.75726e-05 1.13699e-06 0)
(6.709e-05 1.24961e-06 0)
(6.65592e-05 1.36644e-06 0)
(6.59785e-05 1.48732e-06 0)
(6.53462e-05 1.612e-06 0)
(6.46606e-05 1.74027e-06 0)
(6.39205e-05 1.87193e-06 0)
(6.31245e-05 2.00661e-06 0)
(6.22714e-05 2.14396e-06 0)
(6.136e-05 2.28364e-06 0)
(6.03895e-05 2.42527e-06 0)
(5.93591e-05 2.56849e-06 0)
(5.82683e-05 2.71285e-06 0)
(5.71168e-05 2.85777e-06 0)
(5.59046e-05 3.00268e-06 0)
(5.46316e-05 3.14707e-06 0)
(5.32983e-05 3.29036e-06 0)
(5.19053e-05 3.43181e-06 0)
(5.04537e-05 3.57073e-06 0)
(4.89447e-05 3.70637e-06 0)
(4.73799e-05 3.83796e-06 0)
(4.57612e-05 3.96465e-06 0)
(4.40908e-05 4.08556e-06 0)
(4.23715e-05 4.19975e-06 0)
(4.06063e-05 4.30618e-06 0)
(3.87987e-05 4.40379e-06 0)
(3.69529e-05 4.49147e-06 0)
(3.50731e-05 4.56802e-06 0)
(3.31643e-05 4.63222e-06 0)
(3.12318e-05 4.6828e-06 0)
(2.92818e-05 4.71837e-06 0)
(2.73206e-05 4.7375e-06 0)
(2.53554e-05 4.73876e-06 0)
(2.33937e-05 4.72057e-06 0)
(2.1444e-05 4.6813e-06 0)
(1.95149e-05 4.61932e-06 0)
(1.76162e-05 4.53292e-06 0)
(1.57578e-05 4.42041e-06 0)
(1.39502e-05 4.28017e-06 0)
(1.22045e-05 4.1106e-06 0)
(1.05325e-05 3.9102e-06 0)
(8.94591e-06 3.67772e-06 0)
(7.45691e-06 3.41226e-06 0)
(6.07756e-06 3.11356e-06 0)
(4.81967e-06 2.78219e-06 0)
(3.69438e-06 2.42008e-06 0)
(2.71154e-06 2.03121e-06 0)
(1.87902e-06 1.62244e-06 0)
(1.20204e-06 1.20493e-06 0)
(6.81784e-07 7.96215e-07 0)
(3.14022e-07 4.22716e-07 0)
(9.1797e-08 1.23674e-07 0)
(8.10103e-09 -3.68928e-08 0)
(2.32933e-08 -1.46323e-07 0)
(1.64348e-07 -4.09105e-07 0)
(5.05789e-07 -8.12971e-07 0)
(1.01827e-06 -1.33285e-06 0)
(1.69842e-06 -1.90304e-06 0)
(2.54808e-06 -2.47998e-06 0)
(3.56272e-06 -3.03848e-06 0)
(4.73605e-06 -3.56243e-06 0)
(6.05771e-06 -4.04427e-06 0)
(7.51588e-06 -4.47948e-06 0)
(9.09844e-06 -4.86637e-06 0)
(1.07915e-05 -5.20521e-06 0)
(1.25816e-05 -5.49701e-06 0)
(1.44555e-05 -5.74317e-06 0)
(1.63996e-05 -5.94613e-06 0)
(1.84011e-05 -6.10844e-06 0)
(2.0448e-05 -6.23232e-06 0)
(2.25288e-05 -6.32059e-06 0)
(2.46324e-05 -6.37595e-06 0)
(2.67488e-05 -6.40076e-06 0)
(2.88686e-05 -6.39758e-06 0)
(3.09831e-05 -6.36893e-06 0)
(3.30844e-05 -6.31703e-06 0)
(3.51652e-05 -6.24427e-06 0)
(3.72189e-05 -6.15277e-06 0)
(3.92396e-05 -6.04446e-06 0)
(4.1222e-05 -5.9213e-06 0)
(4.31614e-05 -5.78519e-06 0)
(4.50539e-05 -5.63778e-06 0)
(4.68958e-05 -5.48076e-06 0)
(4.86841e-05 -5.31568e-06 0)
(5.04162e-05 -5.14387e-06 0)
(5.20902e-05 -4.96673e-06 0)
(5.37043e-05 -4.78557e-06 0)
(5.52574e-05 -4.60149e-06 0)
(5.67486e-05 -4.41559e-06 0)
(5.81773e-05 -4.2289e-06 0)
(5.95437e-05 -4.04232e-06 0)
(6.08477e-05 -3.85674e-06 0)
(6.20897e-05 -3.67299e-06 0)
(6.32706e-05 -3.49175e-06 0)
(6.43912e-05 -3.31358e-06 0)
(6.54526e-05 -3.13918e-06 0)
(6.64563e-05 -2.96911e-06 0)
(6.74037e-05 -2.80372e-06 0)
(6.82966e-05 -2.64344e-06 0)
(6.91368e-05 -2.48876e-06 0)
(6.9926e-05 -2.33988e-06 0)
(7.06665e-05 -2.19699e-06 0)
(7.13602e-05 -2.0604e-06 0)
(7.20095e-05 -1.93027e-06 0)
(7.26164e-05 -1.80669e-06 0)
(7.31833e-05 -1.68975e-06 0)
(7.37123e-05 -1.57946e-06 0)
(7.42059e-05 -1.47578e-06 0)
(7.46664e-05 -1.37871e-06 0)
(7.50959e-05 -1.28824e-06 0)
(7.54966e-05 -1.20426e-06 0)
(7.58709e-05 -1.12655e-06 0)
(7.62209e-05 -1.05491e-06 0)
(7.65486e-05 -9.8919e-07 0)
(7.68559e-05 -9.29235e-07 0)
(7.71449e-05 -8.74737e-07 0)
(7.74175e-05 -8.25404e-07 0)
(7.76754e-05 -7.81049e-07 0)
(7.79201e-05 -7.41351e-07 0)
(7.81533e-05 -7.05898e-07 0)
(7.83764e-05 -6.74386e-07 0)
(7.85906e-05 -6.4651e-07 0)
(7.87973e-05 -6.21849e-07 0)
(7.89974e-05 -5.99993e-07 0)
(7.91918e-05 -5.80601e-07 0)
(7.93812e-05 -5.63306e-07 0)
(7.95665e-05 -5.47679e-07 0)
(7.97481e-05 -5.33277e-07 0)
(7.99264e-05 -5.19727e-07 0)
(8.01015e-05 -5.06651e-07 0)
(8.02735e-05 -4.93572e-07 0)
(8.04424e-05 -4.80035e-07 0)
(8.0608e-05 -4.65657e-07 0)
(8.07698e-05 -4.50094e-07 0)
(8.09274e-05 -4.32939e-07 0)
(8.10803e-05 -4.13723e-07 0)
(8.12275e-05 -3.92062e-07 0)
(8.13683e-05 -3.67608e-07 0)
(8.15014e-05 -3.39963e-07 0)
(8.16259e-05 -3.08756e-07 0)
(8.17404e-05 -2.73649e-07 0)
(8.18433e-05 -2.34321e-07 0)
(8.19333e-05 -1.90462e-07 0)
(8.20087e-05 -1.41711e-07 0)
(8.20678e-05 -8.7771e-08 0)
(8.21086e-05 -2.84122e-08 0)
(8.21292e-05 3.6634e-08 0)
(8.21277e-05 1.07616e-07 0)
(8.2102e-05 1.84756e-07 0)
(8.20498e-05 2.68239e-07 0)
(8.19689e-05 3.58195e-07 0)
(8.1857e-05 4.54765e-07 0)
(8.1712e-05 5.5809e-07 0)
(8.15314e-05 6.68267e-07 0)
(8.13129e-05 7.85361e-07 0)
(8.10539e-05 9.09381e-07 0)
(8.07523e-05 1.04028e-06 0)
(8.04055e-05 1.17802e-06 0)
(8.00112e-05 1.32255e-06 0)
(7.9567e-05 1.47376e-06 0)
(7.90707e-05 1.63155e-06 0)
(7.85202e-05 1.79574e-06 0)
(7.79132e-05 1.96605e-06 0)
(7.72476e-05 2.14223e-06 0)
(7.65215e-05 2.32398e-06 0)
(7.5733e-05 2.51098e-06 0)
(7.48805e-05 2.7029e-06 0)
(7.39623e-05 2.8993e-06 0)
(7.2977e-05 3.09962e-06 0)
(7.19233e-05 3.30332e-06 0)
(7.08003e-05 3.50986e-06 0)
(6.96071e-05 3.71862e-06 0)
(6.83429e-05 3.92893e-06 0)
(6.70074e-05 4.1401e-06 0)
(6.56006e-05 4.35126e-06 0)
(6.41226e-05 4.56157e-06 0)
(6.25739e-05 4.77015e-06 0)
(6.09552e-05 4.97607e-06 0)
(5.92676e-05 5.17826e-06 0)
(5.75128e-05 5.37566e-06 0)
(5.56927e-05 5.56711e-06 0)
(5.38093e-05 5.75132e-06 0)
(5.18655e-05 5.92694e-06 0)
(4.98644e-05 6.09267e-06 0)
(4.78096e-05 6.24705e-06 0)
(4.57053e-05 6.38854e-06 0)
(4.35562e-05 6.51555e-06 0)
(4.13673e-05 6.62636e-06 0)
(3.91445e-05 6.71918e-06 0)
(3.68941e-05 6.79218e-06 0)
(3.46229e-05 6.84343e-06 0)
(3.23386e-05 6.87086e-06 0)
(3.00493e-05 6.87236e-06 0)
(2.77638e-05 6.84579e-06 0)
(2.54917e-05 6.78897e-06 0)
(2.3243e-05 6.6996e-06 0)
(2.10287e-05 6.57536e-06 0)
(1.88601e-05 6.41394e-06 0)
(1.67491e-05 6.21314e-06 0)
(1.47082e-05 5.97089e-06 0)
(1.27504e-05 5.68532e-06 0)
(1.08889e-05 5.35495e-06 0)
(9.1369e-06 4.9788e-06 0)
(7.50788e-06 4.55684e-06 0)
(6.01464e-06 4.09025e-06 0)
(4.66935e-06 3.58198e-06 0)
(3.48294e-06 3.03755e-06 0)
(2.46439e-06 2.46615e-06 0)
(1.62028e-06 1.88206e-06 0)
(9.53815e-07 1.30669e-06 0)
(4.63626e-07 7.71079e-07 0)
(1.49542e-07 3.19685e-07 0)
(1.84717e-08 2.20569e-08 0)
(2.9562e-08 -2.36602e-07 0)
(2.11596e-07 -6.9737e-07 0)
(6.36276e-07 -1.29049e-06 0)
(1.26501e-06 -1.99415e-06 0)
(2.08586e-06 -2.74498e-06 0)
(3.09409e-06 -3.49861e-06 0)
(4.28402e-06 -4.22589e-06 0)
(5.64558e-06 -4.91001e-06 0)
(7.16732e-06 -5.54067e-06 0)
(8.837e-06 -6.11188e-06 0)
(1.06402e-05 -6.6214e-06 0)
(1.25629e-05 -7.06886e-06 0)
(1.45908e-05 -7.45491e-06 0)
(1.6709e-05 -7.78166e-06 0)
(1.89032e-05 -8.05177e-06 0)
(2.11597e-05 -8.26787e-06 0)
(2.34654e-05 -8.43318e-06 0)
(2.58074e-05 -8.55119e-06 0)
(2.8174e-05 -8.6251e-06 0)
(3.05541e-05 -8.65815e-06 0)
(3.29372e-05 -8.6538e-06 0)
(3.53137e-05 -8.61506e-06 0)
(3.76748e-05 -8.54504e-06 0)
(4.00124e-05 -8.44682e-06 0)
(4.23193e-05 -8.32317e-06 0)
(4.45887e-05 -8.17681e-06 0)
(4.68147e-05 -8.01036e-06 0)
(4.89922e-05 -7.82617e-06 0)
(5.11164e-05 -7.62662e-06 0)
(5.31834e-05 -7.41398e-06 0)
(5.51899e-05 -7.19026e-06 0)
(5.71329e-05 -6.95738e-06 0)
(5.901e-05 -6.71724e-06 0)
(6.08195e-05 -6.47148e-06 0)
(6.256e-05 -6.22174e-06 0)
(6.42304e-05 -5.96951e-06 0)
(6.58303e-05 -5.71608e-06 0)
(6.73596e-05 -5.46276e-06 0)
(6.88183e-05 -5.21081e-06 0)
(7.02069e-05 -4.96128e-06 0)
(7.15264e-05 -4.71506e-06 0)
(7.27777e-05 -4.47312e-06 0)
(7.3962e-05 -4.23633e-06 0)
(7.50811e-05 -4.00532e-06 0)
(7.61368e-05 -3.78069e-06 0)
(7.71307e-05 -3.56309e-06 0)
(7.8065e-05 -3.35307e-06 0)
(7.89419e-05 -3.15098e-06 0)
(7.97638e-05 -2.95714e-06 0)
(8.0533e-05 -2.77188e-06 0)
(8.12521e-05 -2.59541e-06 0)
(8.19235e-05 -2.42789e-06 0)
(8.25499e-05 -2.2695e-06 0)
(8.3134e-05 -2.12024e-06 0)
(8.36782e-05 -1.97999e-06 0)
(8.41852e-05 -1.84879e-06 0)
(8.46577e-05 -1.72666e-06 0)
(8.50981e-05 -1.61332e-06 0)
(8.55091e-05 -1.50855e-06 0)
(8.58932e-05 -1.41222e-06 0)
(8.62525e-05 -1.32411e-06 0)
(8.65895e-05 -1.24381e-06 0)
(8.69065e-05 -1.17095e-06 0)
(8.72055e-05 -1.10522e-06 0)
(8.74885e-05 -1.0463e-06 0)
(8.77574e-05 -9.93718e-07 0)
(8.8014e-05 -9.47002e-07 0)
(8.826e-05 -9.05712e-07 0)
(8.84968e-05 -8.69365e-07 0)
(8.87258e-05 -8.37425e-07 0)
(8.89483e-05 -8.0941e-07 0)