/*--------------------------------*- C++ -*----------------------------------*\
  =========                 |
  \\      /  F ield         | OpenFOAM: The Open Source CFD Toolbox
   \\    /   O peration     | Website:  https://openfoam.org
    \\  /    A nd           | Version:  7
     \\/     M anipulation  |
\*---------------------------------------------------------------------------*/
FoamFile
{
    version     2.0;
    format      ascii;
    class       volScalarField;
    location    "0.0125";
    object      p;
}
// * * * * * * * * * * * * * * * * * * * * * * * * * * * * * * * * * * * * * //

dimensions      [0 2 -2 0 0 0 0];

internalField   nonuniform List<scalar> 
12800
(
1.22289e-08
-8.66682e-05
-0.000276053
-0.000524363
-0.000788398
-0.00103914
-0.00125615
-0.00142551
-0.00153815
-0.00158852
-0.0015735
-0.00149162
-0.00134255
-0.00112679
-0.000845442
-0.000499827
-9.12956e-05
0.000378827
0.000909257
0.00149878
0.00214628
0.00285068
0.00361088
0.00442573
0.00529403
0.00621464
0.00718641
0.00820823
0.00927905
0.0103979
0.0115638
0.0127757
0.0140326
0.0153337
0.0166779
0.0180641
0.0194913
0.0209582
0.0224636
0.0240067
0.0255864
0.0272017
0.0288517
0.0305353
0.0322518
0.0340001
0.0357795
0.0375889
0.0394273
0.0412941
0.0431884
0.0451096
0.0470567
0.0490286
0.0510243
0.0530429
0.0550832
0.0571442
0.059225
0.0613249
0.0634433
0.0655796
0.0677333
0.0699039
0.0720907
0.0742933
0.076511
0.0787428
0.0809883
0.0832465
0.0855169
0.0877985
0.0900905
0.092392
0.094702
0.0970199
0.0993451
0.101677
0.104015
0.106358
0.108707
0.111061
0.113419
0.11578
0.118144
0.120511
0.122879
0.125248
0.127617
0.129985
0.132351
0.134715
0.137076
0.139433
0.141785
0.144133
0.146475
0.148811
0.151139
0.153459
0.15577
0.15807
0.160359
0.162636
0.164899
0.167149
0.169384
0.171604
0.173806
0.175989
0.178152
0.180295
0.182414
0.18451
0.186581
0.188627
0.190645
0.192634
0.194592
0.196519
0.198411
0.200268
0.202088
0.203869
0.20561
0.20731
0.208965
0.210575
0.212136
0.213648
0.215108
0.216515
0.217866
0.219161
0.220398
0.221573
0.222687
0.223736
0.224719
0.225635
0.226481
0.227258
0.227961
0.228591
0.229144
0.229619
0.230015
0.230331
0.230565
0.230719
0.230791
0.230785
0.230705
0.230555
0.230348
0.230098
0.229827
0.229569
0.22937
0.229276
7.57597e-05
-1.00616e-05
-0.000162046
-0.000353078
-0.00055567
-0.000747851
-0.000912731
-0.00103783
-0.00111423
-0.00113585
-0.00109881
-0.00100083
-0.000840744
-0.000618172
-0.000333355
1.30659e-05
0.000420259
0.000887344
0.00141341
0.00199754
0.00263885
0.00333642
0.00408932
0.0048965
0.00575683
0.00666921
0.00763251
0.00864563
0.00970752
0.0108173
0.0119739
0.0131766
0.0144244
0.0157162
0.017051
0.0184279
0.0198456
0.0213031
0.0227992
0.0243327
0.0259029
0.0275088
0.0291495
0.0308239
0.0325311
0.0342703
0.0360405
0.0378408
0.0396705
0.0415286
0.0434145
0.0453273
0.0472661
0.04923
0.0512179
0.0532286
0.0552611
0.0573144
0.0593876
0.0614799
0.0635908
0.0657197
0.0678661
0.0700295
0.0722094
0.0744049
0.0766157
0.0788409
0.0810797
0.0833314
0.0855954
0.0878708
0.0901565
0.0924517
0.0947556
0.0970672
0.0993859
0.101711
0.104043
0.10638
0.108723
0.11107
0.113422
0.115777
0.118136
0.120496
0.122858
0.12522
0.127583
0.129944
0.132304
0.134661
0.137014
0.139364
0.14171
0.14405
0.146385
0.148713
0.151033
0.153346
0.155648
0.15794
0.160221
0.162489
0.164744
0.166985
0.169211
0.171421
0.173613
0.175787
0.17794
0.180072
0.182181
0.184267
0.186327
0.188361
0.190368
0.192346
0.194293
0.196208
0.198089
0.199934
0.201742
0.203512
0.205242
0.206929
0.208573
0.210171
0.21172
0.21322
0.214668
0.216063
0.217404
0.218687
0.219912
0.221077
0.22218
0.223219
0.224192
0.225099
0.225938
0.226707
0.227405
0.22803
0.228581
0.229056
0.229456
0.229779
0.230025
0.230195
0.230291
0.230316
0.230274
0.230173
0.230022
0.229835
0.229631
0.229435
0.229276
0.229182
0.000250399
0.000130663
-1.94067e-05
-0.000187222
-0.000358756
-0.000517643
-0.000650298
-0.000746286
-0.000797648
-0.000798522
-0.000744887
-0.000634185
-0.000464884
-0.000236161
5.22596e-05
0.000400217
0.000807261
0.00127282
0.00179624
0.00237685
0.0030139
0.00370662
0.00445416
0.00525558
0.00610983
0.00701586
0.00797263
0.00897908
0.0100342
0.011137
0.0122866
0.0134823
0.0147229
0.0160076
0.0173353
0.0187049
0.0201154
0.0215655
0.0230543
0.0245806
0.0261435
0.0277421
0.0293755
0.0310428
0.0327429
0.034475
0.0362381
0.0380315
0.0398544
0.041706
0.0435854
0.0454918
0.0474244
0.049382
0.0513638
0.0533684
0.0553948
0.0574422
0.0595095
0.061596
0.0637013
0.0658246
0.0679656
0.0701235
0.0722978
0.074488
0.0766934
0.0789132
0.0811469
0.0833936
0.0856526
0.087923
0.0902038
0.0924942
0.0947931
0.0970998
0.0994137
0.101734
0.104061
0.106394
0.108731
0.111074
0.113421
0.115772
0.118126
0.120481
0.122838
0.125196
0.127553
0.129909
0.132264
0.134616
0.136964
0.139309
0.141649
0.143984
0.146313
0.148635
0.15095
0.153256
0.155552
0.157838
0.160112
0.162374
0.164623
0.166857
0.169076
0.171279
0.173464
0.17563
0.177776
0.1799
0.182001
0.184079
0.186131
0.188158
0.190156
0.192126
0.194064
0.19597
0.197843
0.199679
0.201479
0.20324
0.204961
0.20664
0.208275
0.209864
0.211404
0.212896
0.214336
0.215722
0.217054
0.21833
0.219547
0.220704
0.221799
0.222831
0.223798
0.224699
0.225533
0.226297
0.226991
0.227614
0.228164
0.228641
0.229044
0.229373
0.229629
0.229813
0.229926
0.229973
0.229958
0.229887
0.229771
0.229619
0.229449
0.229277
0.229118
0.228984
0.000487143
0.00031243
0.000141201
-2.6033e-05
-0.000187377
-0.000330827
-0.000445714
-0.000523842
-0.000558684
-0.000545123
-0.00047937
-0.00035887
-0.000182029
5.21193e-05
0.000344088
0.000693995
0.00110166
0.00156671
0.0020887
0.00266709
0.00330125
0.00399052
0.0047341
0.00553114
0.00638069
0.00728175
0.00823339
0.00923464
0.0102845
0.0113821
0.0125264
0.0137165
0.0149517
0.0162308
0.0175529
0.0189168
0.0203215
0.0217659
0.0232489
0.0247696
0.0263268
0.0279197
0.0295475
0.0312091
0.0329037
0.0346302
0.0363879
0.038176
0.0399936
0.0418401
0.0437145
0.045616
0.0475436
0.0494964
0.0514732
0.053473
0.0554948
0.0575375
0.0596003
0.0616826
0.0637835
0.0659026
0.0680393
0.070193
0.0723631
0.074549
0.0767502
0.0789659
0.0811955
0.0834381
0.0856932
0.0879596
0.0902365
0.0925228
0.0948179
0.0971207
0.0994308
0.101748
0.104071
0.1064
0.108734
0.111073
0.113417
0.115764
0.118114
0.120466
0.122819
0.125173
0.127526
0.129878
0.132229
0.134576
0.136921
0.139261
0.141597
0.143928
0.146253
0.14857
0.150881
0.153182
0.155474
0.157755
0.160025
0.162282
0.164526
0.166755
0.168969
0.171166
0.173346
0.175506
0.177646
0.179765
0.18186
0.183932
0.185979
0.187999
0.189991
0.191954
0.193886
0.195786
0.197652
0.199483
0.201276
0.203031
0.204746
0.206418
0.208046
0.209629
0.211164
0.212649
0.214083
0.215464
0.21679
0.218059
0.219271
0.220422
0.221513
0.22254
0.223503
0.224401
0.225231
0.225992
0.226685
0.227306
0.227857
0.228336
0.228743
0.229078
0.229341
0.229535
0.229661
0.229723
0.229724
0.229672
0.229574
0.229439
0.229278
0.229106
0.228923
0.228728
0.000744366
0.000508291
0.000306541
0.000129496
-3.18543e-05
-0.000169109
-0.00027411
-0.000340748
-0.000363984
-0.000339682
-0.000264571
-0.000136238
4.69134e-05
0.000285872
0.000581213
0.000933214
0.00134187
0.00180697
0.00232815
0.00290499
0.00353698
0.0042235
0.00496386
0.00575727
0.0066029
0.00749984
0.00844719
0.00944407
0.0104896
0.0115827
0.0127226
0.0139083
0.0151389
0.0164133
0.0177306
0.0190897
0.0204896
0.0219291
0.0234072
0.0249231
0.0264757
0.0280639
0.0296869
0.0313437
0.0330336
0.0347556
0.0365088
0.0382924
0.0401058
0.041948
0.0438182
0.0457155
0.047639
0.0495876
0.0515603
0.053556
0.0555737
0.0576127
0.0596719
0.0617506
0.0638481
0.0659638
0.068097
0.0702471
0.0724136
0.074596
0.0767936
0.0790058
0.0812319
0.0834711
0.0857227
0.0879858
0.0902592
0.0925422
0.0948339
0.0971335
0.0994404
0.101754
0.104074
0.1064
0.108732
0.111068
0.113408
0.115752
0.118099
0.120448
0.122799
0.125149
0.127499
0.129848
0.132195
0.134539
0.13688
0.139217
0.14155
0.143877
0.146199
0.148513
0.150819
0.153117
0.155405
0.157682
0.159948
0.162202
0.164442
0.166667
0.168877
0.171069
0.173244
0.1754
0.177536
0.17965
0.181741
0.183808
0.18585
0.187865
0.189852
0.19181
0.193737
0.195632
0.197494
0.19932
0.201109
0.202859
0.204568
0.206236
0.207859
0.209437
0.210967
0.212448
0.213878
0.215254
0.216576
0.217841
0.219048
0.220196
0.221283
0.222307
0.223267
0.224162
0.22499
0.22575
0.226442
0.227064
0.227615
0.228097
0.228507
0.228847
0.229117
0.229319
0.229454
0.229527
0.22954
0.2295
0.229411
0.229281
0.22912
0.228937
0.22872
0.228459
0.000991546
0.000695678
0.000460141
0.00026744
9.95065e-05
-3.80722e-05
-0.000139219
-0.000199628
-0.000215554
-0.00018382
-0.000101832
3.2482e-05
0.000220631
0.000463594
0.000761947
0.00111601
0.00152585
0.00199136
0.00251225
0.00308814
0.00371859
0.00440304
0.00514088
0.00593141
0.0067739
0.00766756
0.00861154
0.00960499
0.010647
0.0117367
0.0128731
0.0140552
0.0152821
0.0165528
0.0178663
0.0192215
0.0206175
0.0220531
0.0235274
0.0250395
0.0265883
0.0281728
0.0297921
0.0314451
0.0331312
0.0348495
0.0365992
0.0383794
0.0401894
0.0420283
0.0438952
0.0457892
0.0477093
0.0496545
0.0516238
0.0536162
0.0556309
0.0576669
0.0597233
0.0617993
0.0638941
0.066007
0.0681374
0.0702848
0.0724484
0.0746279
0.0768227
0.0790321
0.0812554
0.0834919
0.0857407
0.0880009
0.0902715
0.0925518
0.0948409
0.097138
0.0994425
0.101754
0.104072
0.106395
0.108725
0.111059
0.113397
0.115739
0.118083
0.12043
0.122778
0.125126
0.127473
0.129819
0.132163
0.134505
0.136843
0.139178
0.141508
0.143832
0.146151
0.148462
0.150766
0.15306
0.155346
0.15762
0.159884
0.162134
0.164371
0.166594
0.1688
0.170989
0.173161
0.175313
0.177446
0.179556
0.181644
0.183708
0.185746
0.187758
0.189741
0.191695
0.193619
0.195511
0.197369
0.199192
0.200977
0.202724
0.20443
0.206094
0.207714
0.209289
0.210816
0.212294
0.213721
0.215094
0.216413
0.217675
0.21888
0.220025
0.22111
0.222133
0.223091
0.223985
0.224812
0.225572
0.226263
0.226886
0.227439
0.227923
0.228336
0.22868
0.228956
0.229164
0.229306
0.229386
0.229407
0.229372
0.229287
0.229156
0.228987
0.228786
0.228533
0.228209
0.00120785
0.000857497
0.000588302
0.000376943
0.000198262
5.5843e-05
-4.58946e-05
-0.000104204
-0.000116442
-8.02388e-05
6.34996e-06
0.000144945
0.00033685
0.000582975
0.000883876
0.00123984
0.00165093
0.0021171
0.00263811
0.0032136
0.00384313
0.00452621
0.00526226
0.00605069
0.00689086
0.00778208
0.00872358
0.00971456
0.0107541
0.0118412
0.0129751
0.0141546
0.0153789
0.0166468
0.0179575
0.0193098
0.020703
0.0221359
0.0236074
0.0251167
0.0266627
0.0282444
0.029861
0.0315114
0.0331948
0.0349104
0.0366576
0.0384355
0.0402431
0.0420796
0.0439441
0.0458356
0.0477531
0.0496958
0.0516627
0.0536527
0.0556652
0.0576991
0.0597535
0.0618276
0.0639204
0.0660313
0.0681597
0.070305
0.0724666
0.074644
0.0768367
0.0790441
0.0812654
0.0834998
0.0857465
0.0880045
0.0902731
0.0925514
0.0948386
0.097134
0.0994368
0.101747
0.104063
0.106385
0.108713
0.111045
0.113382
0.115722
0.118065
0.12041
0.122756
0.125102
0.127448
0.129791
0.132133
0.134473
0.136809
0.139142
0.14147
0.143793
0.146109
0.148419
0.15072
0.153013
0.155296
0.157569
0.159831
0.162079
0.164315
0.166535
0.168739
0.170926
0.173096
0.175246
0.177377
0.179485
0.181571
0.183633
0.185669
0.187678
0.189659
0.191612
0.193533
0.195423
0.19728
0.1991
0.200884
0.202629
0.204333
0.205996
0.207614
0.209187
0.210713
0.212189
0.213614
0.214986
0.216304
0.217565
0.218769
0.219913
0.220997
0.222019
0.222977
0.223871
0.224698
0.225458
0.226151
0.226775
0.22733
0.227816
0.228232
0.22858
0.228859
0.229072
0.229219
0.229304
0.229328
0.229294
0.229208
0.229071
0.22889
0.228668
0.22838
0.227998
0.00137891
0.000980933
0.000680314
0.00044949
0.000257885
0.000107808
2.51879e-06
-5.65592e-05
-6.77968e-05
-2.94974e-05
5.97658e-05
0.000201166
0.000395724
0.00064424
0.000947209
0.00130486
0.00171724
0.00218426
0.00270571
0.00328123
0.00391039
0.00459274
0.00532775
0.00611487
0.00695356
0.0078432
0.00878309
0.00977247
0.0108104
0.011896
0.0130282
0.0142062
0.0154287
0.016695
0.0180039
0.0193545
0.0207458
0.022177
0.0236469
0.0251545
0.0266987
0.0282787
0.0298935
0.0315423
0.0332241
0.0349383
0.036684
0.0384604
0.0402667
0.0421017
0.0439647
0.0458546
0.0477704
0.0497114
0.0516767
0.0536653
0.0556765
0.0577091
0.0597624
0.0618353
0.063927
0.0660367
0.0681639
0.0703079
0.0724682
0.0746444
0.0768359
0.079042
0.0812619
0.0834949
0.0857402
0.0879968
0.090264
0.092541
0.0948271
0.0971214
0.0994234
0.101732
0.104048
0.106369
0.108695
0.111027
0.113363
0.115702
0.118044
0.120388
0.122733
0.125078
0.127422
0.129764
0.132105
0.134443
0.136778
0.13911
0.141436
0.143758
0.146073
0.148382
0.150682
0.152974
0.155256
0.157528
0.159789
0.162037
0.164271
0.16649
0.168694
0.17088
0.173049
0.175199
0.177328
0.179436
0.18152
0.183581
0.185617
0.187625
0.189606
0.191558
0.19348
0.195369
0.197225
0.199045
0.200828
0.202573
0.204277
0.20594
0.207558
0.209131
0.210657
0.212133
0.213558
0.21493
0.216248
0.217509
0.218713
0.219858
0.220943
0.221965
0.222924
0.223818
0.224647
0.225409
0.226103
0.226729
0.227286
0.227774
0.228193
0.228544
0.228827
0.229043
0.229193
0.229279
0.229304
0.229269
0.229178
0.229032
0.228837
0.228595
0.228273
0.227843
0.00149501
0.0010565
0.000727708
0.00047805
0.000272808
0.000113534
2.78477e-06
-5.90086e-05
-7.112e-05
-3.24844e-05
5.79064e-05
0.000200889
0.000397188
0.000647427
0.000952025
0.00131116
0.00172481
0.00219284
0.00271502
0.00329099
0.0039203
0.00460251
0.00533717
0.00612379
0.00696185
0.0078508
0.00878998
0.00977865
0.0108159
0.0119009
0.0130325
0.0142097
0.0154316
0.0166971
0.0180053
0.0193553
0.020746
0.0221764
0.0236457
0.0251527
0.0266963
0.0282756
0.0298898
0.0315379
0.0332193
0.034933
0.0366783
0.0384543
0.04026
0.0420945
0.0439568
0.0458459
0.0477611
0.0497013
0.0516659
0.053654
0.0556647
0.0576969
0.0597498
0.0618224
0.0639138
0.0660231
0.0681499
0.0702935
0.0724534
0.0746292
0.0768202
0.0790257
0.081245
0.0834774
0.085722
0.0879779
0.0902445
0.092521
0.0948067
0.0971006
0.0994023
0.101711
0.104026
0.106347
0.108673
0.111004
0.11334
0.115679
0.118021
0.120364
0.122708
0.125053
0.127396
0.129738
0.132078
0.134415
0.13675
0.139081
0.141407
0.143729
0.146044
0.148352
0.150652
0.152944
0.155226
0.157498
0.159758
0.162006
0.164241
0.16646
0.168664
0.170851
0.17302
0.17517
0.177299
0.179407
0.181492
0.183554
0.18559
0.1876
0.189582
0.191535
0.193457
0.195347
0.197204
0.199025
0.20081
0.202556
0.204262
0.205926
0.207546
0.20912
0.210646
0.212124
0.21355
0.214924
0.216244
0.217507
0.218713
0.21986
0.220945
0.221969
0.22293
0.223827
0.224658
0.225422
0.226119
0.226747
0.227306
0.227797
0.228219
0.228572
0.228857
0.229075
0.229226
0.229313
0.229336
0.229298
0.229201
0.229045
0.228835
0.228573
0.228222
0.22775
0.00154995
0.00107745
0.000723985
0.000456862
0.000238257
6.92135e-05
-4.81217e-05
-0.000113948
-0.000128241
-9.05189e-05
-1.48026e-07
0.000143466
0.000340802
0.000592254
0.000898125
0.00125854
0.00167344
0.00214262
0.0026658
0.0032426
0.0038726
0.00455532
0.00529033
0.00607722
0.00691552
0.00780469
0.00874408
0.00973295
0.0107705
0.0118557
0.0129875
0.0141651
0.0153872
0.0166531
0.0179617
0.019312
0.0207032
0.0221341
0.0236038
0.0251112
0.0266553
0.028235
0.0298497
0.0314984
0.0331803
0.0348946
0.0366405
0.0384171
0.0402232
0.042058
0.0439204
0.0458097
0.047725
0.0496654
0.0516303
0.0536187
0.0556298
0.0576626
0.0597159
0.0617889
0.0638806
0.0659904
0.0681177
0.0702617
0.072422
0.0745982
0.0767895
0.0789953
0.0812148
0.0834471
0.0856917
0.0879478
0.0902146
0.0924914
0.0947774
0.0970717
0.0993737
0.101683
0.103998
0.10632
0.108646
0.110978
0.113314
0.115653
0.117995
0.120339
0.122683
0.125027
0.127371
0.129713
0.132053
0.13439
0.136725
0.139056
0.141383
0.143705
0.14602
0.148329
0.15063
0.152923
0.155206
0.157478
0.15974
0.161988
0.164224
0.166445
0.168651
0.170839
0.17301
0.175161
0.177291
0.179401
0.181488
0.183551
0.18559
0.187602
0.189586
0.191541
0.193466
0.195358
0.197217
0.199041
0.200829
0.202578
0.204287
0.205953
0.207576
0.209152
0.210682
0.212162
0.213592
0.214969
0.216292
0.217559
0.218767
0.219917
0.221005
0.222032
0.222996
0.223896
0.22473
0.225497
0.226196
0.226827
0.22739
0.227883
0.228308
0.228663
0.22895
0.229169
0.229321
0.229407
0.229428
0.229385
0.229281
0.229114
0.22889
0.228609
0.228233
0.227727
0.00153991
0.00103922
0.000664418
0.000381442
0.000150251
-2.84815e-05
-0.000152895
-0.000223584
-0.000240959
-0.000204991
-0.000115407
2.81586e-05
0.000226004
0.000478313
0.000785224
0.0011468
0.00156293
0.00203339
0.00255783
0.00313587
0.00376706
0.00445095
0.0051871
0.00597508
0.00681448
0.00770475
0.00864527
0.00963527
0.0106739
0.0117603
0.0128934
0.0140721
0.0152957
0.0165629
0.0178729
0.0192247
0.0206174
0.0220499
0.023521
0.0250299
0.0265755
0.0281569
0.0297731
0.0314235
0.0331071
0.034823
0.0365705
0.0383486
0.0401561
0.0419921
0.0438557
0.0457461
0.0476625
0.0496041
0.0515701
0.0535597
0.0555721
0.057606
0.0596605
0.0617347
0.0638276
0.0659386
0.0680671
0.0702125
0.072374
0.0745514
0.0767438
0.0789505
0.0811709
0.0834042
0.0856496
0.0879065
0.0901743
0.0924521
0.0947391
0.0970344
0.0993374
0.101648
0.103964
0.106286
0.108614
0.110947
0.113283
0.115624
0.117966
0.120311
0.122656
0.125001
0.127345
0.129688
0.132029
0.134367
0.136703
0.139035
0.141363
0.143686
0.146003
0.148313
0.150616
0.15291
0.155195
0.157469
0.159732
0.161983
0.164221
0.166445
0.168653
0.170844
0.173016
0.17517
0.177303
0.179415
0.181505
0.183572
0.185614
0.18763
0.189618
0.191577
0.193505
0.195401
0.197264
0.199093
0.200884
0.202638
0.204351
0.206021
0.207648
0.209229
0.210763
0.212248
0.213682
0.215064
0.216391
0.217662
0.218875
0.220029
0.221122
0.222153
0.223121
0.224025
0.224862
0.225633
0.226336
0.226971
0.227537
0.228033
0.22846
0.228818
0.229106
0.229326
0.229477
0.229562
0.22958
0.229532
0.22942
0.229243
0.229005
0.228708
0.22831
0.227775
0.00146262
0.000938696
0.000545654
0.000248458
5.5847e-06
-0.000182421
-0.000313961
-0.000389918
-0.000410931
-0.000377246
-0.000288914
-0.000145824
5.21602e-05
0.000305077
0.000612901
0.000975593
0.00139303
0.00186495
0.00239097
0.00297068
0.00360361
0.00428932
0.00502737
0.00581731
0.00665867
0.00755092
0.00849345
0.0094855
0.0105262
0.0116146
0.0127499
0.013931
0.0151569
0.0164266
0.0177391
0.0190935
0.0204887
0.0219237
0.0233975
0.0249089
0.0264571
0.0280411
0.0296601
0.0313132
0.0329996
0.0347183
0.0364684
0.0382488
0.0400587
0.0418969
0.0437626
0.045655
0.0475736
0.0495174
0.0514855
0.0534772
0.0554915
0.0575275
0.059584
0.0616602
0.0637551
0.0658681
0.0679987
0.0701461
0.0723098
0.0744889
0.0766831
0.0788915
0.0811136
0.0833486
0.0855956
0.0878542
0.0901235
0.0924029
0.0946915
0.0969884
0.099293
0.101605
0.103923
0.106247
0.108576
0.11091
0.113249
0.11559
0.117934
0.12028
0.122627
0.124973
0.127319
0.129663
0.132006
0.134346
0.136683
0.139017
0.141347
0.143672
0.145991
0.148304
0.15061
0.152906
0.155194
0.157471
0.159736
0.161991
0.164232
0.166459
0.16867
0.170864
0.173041
0.175198
0.177335
0.179452
0.181546
0.183617
0.185664
0.187685
0.189677
0.191641
0.193575
0.195476
0.197345
0.199178
0.200976
0.202735
0.204453
0.20613
0.207762
0.209349
0.210889
0.21238
0.21382
0.215208
0.216541
0.217817
0.219036
0.220196
0.221295
0.222332
0.223305
0.224213
0.225055
0.22583
0.226538
0.227177
0.227747
0.228247
0.228676
0.229036
0.229326
0.229546
0.229697
0.22978
0.229794
0.229741
0.229621
0.229434
0.229184
0.228872
0.228455
0.227898
0.00131683
0.000773761
0.000365209
5.54008e-05
-0.000198228
-0.000395005
-0.000533481
-0.000614778
-0.000639676
-0.000608572
-0.000521747
-0.000379355
-0.000181447
7.19164e-05
0.000380613
0.000744502
0.00116341
0.00163705
0.00216503
0.00274689
0.00338216
0.00407036
0.00481107
0.00560378
0.00644798
0.00734311
0.00828853
0.00928352
0.0103273
0.0114188
0.0125572
0.0137416
0.0149709
0.0162441
0.0175603
0.0189183
0.0203171
0.0217557
0.0232331
0.0247482
0.0263001
0.0278879
0.0295106
0.0311676
0.0328578
0.0345802
0.0363339
0.0381177
0.0399308
0.0417723
0.0436412
0.0455368
0.0474584
0.0494053
0.0513766
0.0533713
0.0553885
0.0574273
0.0594866
0.0615656
0.0636634
0.0657793
0.0679128
0.070063
0.0722294
0.0744112
0.0766079
0.0788187
0.0810431
0.0832805
0.08553
0.0877909
0.0900626
0.0923441
0.0946348
0.0969339
0.0992407
0.101555
0.103875
0.106201
0.108533
0.110869
0.11321
0.115553
0.117899
0.120247
0.122596
0.124945
0.127293
0.12964
0.131985
0.134327
0.136667
0.139003
0.141336
0.143664
0.145987
0.148303
0.150612
0.152912
0.155202
0.157483
0.159753
0.162011
0.164256
0.166487
0.168703
0.170901
0.173083
0.175245
0.177387
0.179509
0.181609
0.183686
0.185738
0.187765
0.189764
0.191734
0.193674
0.195582
0.197458
0.199298
0.201102
0.202868
0.204594
0.206278
0.207918
0.209512
0.21106
0.212558
0.214005
0.2154
0.21674
0.218024
0.219251
0.220418
0.221524
0.222567
0.223546
0.22446
0.225308
0.226089
0.226802
0.227446
0.22802
0.228524
0.228956
0.229318
0.22961
0.22983
0.229981
0.230061
0.230072
0.230013
0.229886
0.22969
0.229428
0.229103
0.228671
0.228095
0.00110206
0.000542995
0.000121184
-0.000199727
-0.000463174
-0.000668219
-0.000813332
-0.000899822
-0.000928618
-0.000900203
-0.000815003
-0.000673395
-0.000475624
-0.000221846
8.77782e-05
0.000453035
0.000873671
0.00134937
0.00187974
0.00246429
0.00310253
0.00379394
0.00453806
0.00533436
0.00618224
0.00708114
0.00803041
0.00902926
0.010077
0.0111726
0.0123153
0.013504
0.0147378
0.0160156
0.0173364
0.018699
0.0201026
0.0215459
0.0230279
0.0245478
0.0261046
0.0276972
0.0293249
0.0309867
0.0326817
0.0344088
0.0361669
0.0379551
0.0397725
0.0416182
0.0434913
0.0453911
0.047317
0.049268
0.0512433
0.0532419
0.0552629
0.0573053
0.0593684
0.0614511
0.0635527
0.0656724
0.0678095
0.0699633
0.0721332
0.0743183
0.0765182
0.0787322
0.0809598
0.0832003
0.085453
0.087717
0.0899916
0.092276
0.0945694
0.0968711
0.0991807
0.101497
0.103821
0.10615
0.108484
0.110824
0.113167
0.115513
0.117862
0.120212
0.122564
0.124916
0.127267
0.129617
0.131965
0.134311
0.136654
0.138994
0.141331
0.143662
0.145989
0.148309
0.150622
0.152926
0.155222
0.157507
0.159781
0.162044
0.164294
0.16653
0.168751
0.170955
0.173142
0.175311
0.177459
0.179587
0.181694
0.183777
0.185836
0.18787
0.189877
0.191855
0.193803
0.19572
0.197603
0.199452
0.201264
0.203038
0.204773
0.206465
0.208115
0.209718
0.211275
0.212782
0.214238
0.215641
0.21699
0.218283
0.219518
0.220694
0.221808
0.222859
0.223846
0.224767
0.225622
0.22641
0.227129
0.227778
0.228357
0.228864
0.229301
0.229665
0.229958
0.23018
0.230329
0.230408
0.230415
0.230351
0.230217
0.230012
0.229741
0.229404
0.228958
0.228365
0.000818319
0.000245512
-0.000187852
-0.000518593
-0.00079093
-0.00100371
-0.00115515
-0.00124659
-0.00127912
-0.00125335
-0.0011698
-0.00102896
-0.000831254
-0.000576945
-0.000266234
0.000100635
0.000523336
0.00100151
0.00153474
0.00212253
0.00276439
0.00345976
0.00420807
0.00500878
0.00586124
0.00676479
0.00771882
0.00872257
0.00977521
0.010876
0.0120239
0.0132181
0.0144573
0.0157408
0.0170673
0.0184357
0.019845
0.0212942
0.0227821
0.0243078
0.0258704
0.0274691
0.0291027
0.0307704
0.0324711
0.0342038
0.0359674
0.0377609
0.0395836
0.0414346
0.043313
0.0452182
0.0471492
0.0491053
0.0510855
0.0530889
0.0551146
0.0571617
0.0592294
0.0613167
0.063423
0.0655473
0.0676888
0.0698469
0.0720209
0.0742102
0.076414
0.078632
0.0808636
0.083108
0.0853645
0.0876322
0.0899103
0.0921981
0.0944948
0.0967998
0.0991128
0.101433
0.10376
0.106092
0.10843
0.110773
0.113119
0.115469
0.117821
0.120175
0.12253
0.124886
0.127241
0.129595
0.131947
0.134297
0.136645
0.138989
0.14133
0.143666
0.145997
0.148322
0.15064
0.15295
0.15525
0.157541
0.159821
0.162089
0.164345
0.166587
0.168814
0.171025
0.173219
0.175394
0.17755
0.179686
0.1818
0.183891
0.185959
0.188001
0.190016
0.192004
0.193961
0.195887
0.19778
0.199638
0.20146
0.203244
0.204989
0.206693
0.208352
0.209967
0.211533
0.21305
0.214517
0.215931
0.21729
0.218594
0.219839
0.221024
0.222148
0.223208
0.224204
0.225134
0.225997
0.226792
0.227518
0.228173
0.228758
0.22927
0.22971
0.230078
0.230373
0.230595
0.230744
0.23082
0.230824
0.230755
0.230615
0.230402
0.230121
0.229774
0.229316
0.22871
0.000465758
-0.000119216
-0.000562953
-0.000902585
-0.001183
-0.00140294
-0.00156038
-0.00165652
-0.00169255
-0.00166926
-0.00158726
-0.00144711
-0.0012493
-0.000994216
-0.000682144
-0.000313353
0.000111796
0.000592905
0.00112953
0.00172118
0.00236733
0.00306742
0.00382074
0.00462667
0.00548459
0.00639375
0.00735347
0.00836307
0.00942175
0.0105286
0.0116829
0.0128835
0.0141294
0.0154195
0.0167528
0.0181281
0.0195443
0.0210004
0.0224953
0.024028
0.0255977
0.0272034
0.0288441
0.0305186
0.032226
0.0339653
0.0357353
0.0375353
0.0393644
0.0412217
0.0431064
0.0450179
0.0469551
0.0489172
0.0509032
0.0529123
0.0549437
0.0569963
0.0590695
0.0611624
0.0632741
0.0654038
0.0675506
0.0697138
0.0718926
0.0740867
0.0762953
0.078518
0.0807542
0.0830032
0.0852641
0.087536
0.0898183
0.09211
0.0944107
0.0967197
0.0990367
0.101361
0.103692
0.106028
0.10837
0.110717
0.113067
0.115421
0.117777
0.120136
0.122495
0.124855
0.127215
0.129574
0.131931
0.134286
0.136638
0.138988
0.141334
0.143676
0.146012
0.148343
0.150666
0.152982
0.155289
0.157586
0.159872
0.162147
0.164409
0.166658
0.168892
0.171111
0.173312
0.175496
0.17766
0.179804
0.181927
0.184027
0.186104
0.188156
0.190182
0.19218
0.194148
0.196085
0.197988
0.199858
0.201691
0.203487
0.205244
0.206959
0.208631
0.210257
0.211836
0.213365
0.214844
0.21627
0.217641
0.218956
0.220213
0.221409
0.222544
0.223615
0.224621
0.225561
0.226434
0.227237
0.22797
0.228633
0.229223
0.229741
0.230186
0.230557
0.230854
0.231077
0.231226
0.2313
0.231301
0.231228
0.231081
0.230861
0.230572
0.230215
0.229747
0.229127
4.44268e-05
-0.000551609
-0.00100492
-0.00135284
-0.00164073
-0.00186726
-0.0020303
-0.0021309
-0.00217021
-0.00214917
-0.00206853
-0.00192889
-0.00173076
-0.00147459
-0.00116079
-0.00078969
-0.000361654
0.00012289
0.000663515
0.00125971
0.00191085
0.00261636
0.00337554
0.00418758
0.0050518
0.00596751
0.00693397
0.00795045
0.00901617
0.0101303
0.0112919
0.0125001
0.0137536
0.0150516
0.0163928
0.017776
0.0192002
0.0206643
0.0221674
0.0237083
0.0252862
0.0269
0.0285487
0.0302312
0.0319463
0.0336932
0.0354707
0.0372782
0.0391147
0.0409795
0.0428716
0.0447903
0.0467347
0.0487038
0.0506966
0.0527123
0.0547502
0.0568095
0.0588892
0.0609885
0.0631065
0.0652423
0.067395
0.069564
0.0717485
0.073948
0.0761621
0.0783903
0.0806319
0.0828861
0.085152
0.0874288
0.0897158
0.0920122
0.0943176
0.0966313
0.0989529
0.101282
0.103617
0.105959
0.108305
0.110656
0.113012
0.11537
0.117731
0.120095
0.122459
0.124824
0.127189
0.129554
0.131916
0.134277
0.136636
0.138991
0.141343
0.143691
0.146033
0.14837
0.1507
0.153023
0.155336
0.15764
0.159934
0.162216
0.164486
0.166742
0.168985
0.171212
0.173422
0.175615
0.177789
0.179943
0.182075
0.184186
0.186274
0.188337
0.190374
0.192383
0.194363
0.196312
0.198228
0.200111
0.201957
0.203766
0.205536
0.207265
0.20895
0.21059
0.212182
0.213725
0.215218
0.216658
0.218043
0.219371
0.22064
0.221849
0.222996
0.22408
0.225098
0.226049
0.226931
0.227744
0.228487
0.229157
0.229755
0.230279
0.230729
0.231104
0.231403
0.231627
0.231776
0.231849
0.231847
0.231769
0.231617
0.23139
0.231093
0.230728
0.230249
0.229618
-0.000445757
-0.00105214
-0.00151444
-0.00187027
-0.00216529
-0.00239796
-0.00256616
-0.00267092
-0.00271334
-0.00269434
-0.0026148
-0.00247539
-0.00227664
-0.00201905
-0.0017031
-0.00132923
-0.000897796
-0.000409219
0.000136022
0.000737413
0.00139434
0.00210605
0.0028718
0.00369084
0.00456233
0.00548555
0.00645978
0.00748425
0.00855813
0.00968059
0.0108507
0.0120675
0.0133299
0.0146367
0.0159869
0.0173791
0.0188125
0.0202858
0.0217982
0.0233485
0.0249357
0.0265587
0.0282164
0.0299078
0.0316318
0.0333873
0.0351735
0.0369895
0.0388346
0.0407079
0.0426085
0.0445355
0.046488
0.0484651
0.0504657
0.0524891
0.0545345
0.0566013
0.0586884
0.060795
0.0629201
0.0650627
0.0672221
0.0693976
0.0715886
0.0737945
0.0760149
0.0782493
0.0804969
0.082757
0.0850286
0.0873109
0.0896033
0.0919052
0.0942159
0.096535
0.0988619
0.101196
0.103537
0.105883
0.108235
0.110592
0.112952
0.115316
0.117683
0.120052
0.122422
0.124793
0.127164
0.129535
0.131904
0.134271
0.136636
0.138999
0.141357
0.143711
0.146061
0.148404
0.150742
0.153071
0.155392
0.157704
0.160006
0.162296
0.164575
0.16684
0.169092
0.171328
0.173549
0.175751
0.177936
0.180101
0.182245
0.184367
0.186467
0.188542
0.190592
0.192614
0.194607
0.19657
0.1985
0.200397
0.202258
0.204082
0.205867
0.20761
0.20931
0.210965
0.212573
0.214132
0.21564
0.217095
0.218494
0.219837
0.221121
0.222345
0.223506
0.224603
0.225634
0.226597
0.227491
0.228315
0.229067
0.229747
0.230353
0.230884
0.231339
0.231718
0.232021
0.232247
0.232396
0.232467
0.232462
0.232381
0.232224
0.23199
0.231685
0.231312
0.230823
0.230181
-0.00100493
-0.00162135
-0.00209227
-0.0024557
-0.00275761
-0.00299617
-0.00316918
-0.00327781
-0.00332313
-0.00330599
-0.00322727
-0.00308773
-0.00288799
-0.00262861
-0.00231005
-0.00193284
-0.00149745
-0.00100423
-0.000453657
0.000153644
0.000817036
0.00153575
0.00230892
0.00313578
0.00401553
0.00494732
0.00593038
0.00696395
0.00804716
0.00917911
0.0103589
0.0115855
0.0128578
0.0141746
0.0155349
0.0169375
0.0183811
0.0198649
0.0213877
0.0229484
0.024546
0.0261793
0.0278472
0.0295485
0.0312824
0.0330476
0.0348435
0.0366693
0.0385241
0.040407
0.0423171
0.0442534
0.046215
0.0482009
0.0502104
0.0522425
0.0542965
0.0563717
0.0584671
0.0605818
0.0627147
0.064865
0.0670319
0.0692147
0.071413
0.0736262
0.0758536
0.0780948
0.0803491
0.0826157
0.0848936
0.0871822
0.0894807
0.0917887
0.0941055
0.0964306
0.0987635
0.101103
0.10345
0.105802
0.10816
0.110523
0.112889
0.11526
0.117633
0.120008
0.122384
0.124762
0.127139
0.129516
0.131893
0.134267
0.13664
0.139009
0.141375
0.143736
0.146093
0.148445
0.15079
0.153127
0.155457
0.157777
0.160088
0.162388
0.164675
0.166951
0.169212
0.171459
0.173691
0.175905
0.178101
0.180278
0.182435
0.18457
0.186683
0.188772
0.190836
0.192872
0.19488
0.196858
0.198804
0.200717
0.202594
0.204434
0.206235
0.207994
0.209711
0.211383
0.213008
0.214584
0.216109
0.217581
0.218997
0.220356
0.221656
0.222896
0.224073
0.225185
0.22623
0.227207
0.228114
0.22895
0.229713
0.230403