/*--------------------------------*- C++ -*----------------------------------*\
  =========                 |
  \\      /  F ield         | OpenFOAM: The Open Source CFD Toolbox
   \\    /   O peration     | Website:  https://openfoam.org
    \\  /    A nd           | Version:  7
     \\/     M anipulation  |
\*---------------------------------------------------------------------------*/
FoamFile
{
    version     2.0;
    format      ascii;
    class       volVectorField;
    location    "0.0125";
    object      U;
}
// * * * * * * * * * * * * * * * * * * * * * * * * * * * * * * * * * * * * * //

dimensions      [0 1 -1 0 0 0 0];

internalField   nonuniform List<vector> 
12800
(
(9.97562e-06 -1.03425e-05 0)
(2.5429e-05 -9.34854e-06 0)
(2.38988e-05 -6.24917e-07 0)
(-2.81105e-06 9.07477e-06 0)
(-5.55698e-05 1.78968e-05 0)
(-0.00013138 2.52951e-05 0)
(-0.000226626 3.12248e-05 0)
(-0.000337678 3.58356e-05 0)
(-0.0004612 3.93265e-05 0)
(-0.000594283 4.18951e-05 0)
(-0.000734454 4.37098e-05 0)
(-0.000879653 4.49096e-05 0)
(-0.0010282 4.56219e-05 0)
(-0.00117876 4.59643e-05 0)
(-0.00133027 4.60313e-05 0)
(-0.00148189 4.58851e-05 0)
(-0.00163298 4.55726e-05 0)
(-0.00178306 4.51368e-05 0)
(-0.00193173 4.46132e-05 0)
(-0.00207874 4.403e-05 0)
(-0.00222385 4.34011e-05 0)
(-0.00236692 4.27362e-05 0)
(-0.00250781 4.2047e-05 0)
(-0.00264643 4.13427e-05 0)
(-0.0027827 4.06262e-05 0)
(-0.00291656 3.9896e-05 0)
(-0.00304794 3.91493e-05 0)
(-0.00317681 3.83841e-05 0)
(-0.0033031 3.76014e-05 0)
(-0.00342678 3.68019e-05 0)
(-0.00354781 3.60005e-05 0)
(-0.00366618 3.5202e-05 0)
(-0.00378185 3.43995e-05 0)
(-0.00389482 3.35939e-05 0)
(-0.00400506 3.27811e-05 0)
(-0.00411256 3.1962e-05 0)
(-0.00421733 3.11464e-05 0)
(-0.00431935 3.03344e-05 0)
(-0.00441864 2.95169e-05 0)
(-0.00451519 2.86978e-05 0)
(-0.00460901 2.78786e-05 0)
(-0.0047001 2.70626e-05 0)
(-0.00478848 2.62599e-05 0)
(-0.00487417 2.54566e-05 0)
(-0.00495718 2.46561e-05 0)
(-0.00503754 2.3856e-05 0)
(-0.00511525 2.3056e-05 0)
(-0.00519036 2.22833e-05 0)
(-0.00526291 2.15207e-05 0)
(-0.0053329 2.07602e-05 0)
(-0.00540041 2.002e-05 0)
(-0.00546544 1.92878e-05 0)
(-0.00552805 1.85715e-05 0)
(-0.0055883 1.78807e-05 0)
(-0.00564619 1.71931e-05 0)
(-0.00570177 1.65122e-05 0)
(-0.00575509 1.58457e-05 0)
(-0.00580616 1.51758e-05 0)
(-0.00585499 1.45053e-05 0)
(-0.00590164 1.38478e-05 0)
(-0.00594611 1.31952e-05 0)
(-0.00598842 1.25479e-05 0)
(-0.00602863 1.19169e-05 0)
(-0.00606676 1.12961e-05 0)
(-0.00610283 1.06794e-05 0)
(-0.00613688 1.00764e-05 0)
(-0.00616896 9.49113e-06 0)
(-0.00619908 8.91791e-06 0)
(-0.00622729 8.35566e-06 0)
(-0.00625362 7.80416e-06 0)
(-0.00627809 7.25915e-06 0)
(-0.00630071 6.72106e-06 0)
(-0.00632152 6.19192e-06 0)
(-0.00634053 5.66428e-06 0)
(-0.00635773 5.12885e-06 0)
(-0.00637312 4.58672e-06 0)
(-0.00638671 4.04308e-06 0)
(-0.00639849 3.49835e-06 0)
(-0.00640846 2.95265e-06 0)
(-0.00641662 2.40851e-06 0)
(-0.00642296 1.865e-06 0)
(-0.00642749 1.31912e-06 0)
(-0.00643022 7.73957e-07 0)
(-0.00643113 2.35045e-07 0)
(-0.00643022 -3.01181e-07 0)
(-0.00642749 -8.4454e-07 0)
(-0.00642292 -1.39719e-06 0)
(-0.00641649 -1.95262e-06 0)
(-0.00640818 -2.51005e-06 0)
(-0.00639796 -3.0795e-06 0)
(-0.0063858 -3.66874e-06 0)
(-0.00637166 -4.27339e-06 0)
(-0.00635552 -4.88543e-06 0)
(-0.00633733 -5.50538e-06 0)
(-0.00631705 -6.13914e-06 0)
(-0.00629467 -6.78661e-06 0)
(-0.00627013 -7.44127e-06 0)
(-0.0062434 -8.10098e-06 0)
(-0.00621444 -8.77302e-06 0)
(-0.0061832 -9.46601e-06 0)
(-0.00614965 -1.01811e-05 0)
(-0.00611371 -1.09139e-05 0)
(-0.00607534 -1.1662e-05 0)
(-0.00603448 -1.24269e-05 0)
(-0.00599108 -1.32098e-05 0)
(-0.00594508 -1.40082e-05 0)
(-0.00589643 -1.48199e-05 0)
(-0.00584506 -1.56471e-05 0)
(-0.00579093 -1.6496e-05 0)
(-0.00573398 -1.73711e-05 0)
(-0.00567413 -1.82718e-05 0)
(-0.00561132 -1.91933e-05 0)
(-0.00554549 -2.01314e-05 0)
(-0.00547658 -2.10846e-05 0)
(-0.00540453 -2.2053e-05 0)
(-0.00532928 -2.30359e-05 0)
(-0.00525079 -2.40322e-05 0)
(-0.00516901 -2.50428e-05 0)
(-0.00508389 -2.607e-05 0)
(-0.00499539 -2.71156e-05 0)
(-0.00490347 -2.81769e-05 0)
(-0.00480809 -2.9247e-05 0)
(-0.00470922 -3.03195e-05 0)
(-0.00460683 -3.13923e-05 0)
(-0.00450091 -3.24685e-05 0)
(-0.00439144 -3.35521e-05 0)
(-0.00427841 -3.4644e-05 0)
(-0.00416182 -3.57415e-05 0)
(-0.00404166 -3.68412e-05 0)
(-0.00391793 -3.79407e-05 0)
(-0.00379064 -3.90378e-05 0)
(-0.00365981 -4.01282e-05 0)
(-0.00352547 -4.12081e-05 0)
(-0.00338766 -4.22767e-05 0)
(-0.00324642 -4.33348e-05 0)
(-0.0031018 -4.43815e-05 0)
(-0.0029539 -4.5411e-05 0)
(-0.00280279 -4.6414e-05 0)
(-0.00264859 -4.73797e-05 0)
(-0.00249145 -4.82971e-05 0)
(-0.00233153 -4.91549e-05 0)
(-0.00216909 -4.99409e-05 0)
(-0.0020044 -5.06389e-05 0)
(-0.00183784 -5.12243e-05 0)
(-0.00166987 -5.166e-05 0)
(-0.00150109 -5.18955e-05 0)
(-0.00133227 -5.18683e-05 0)
(-0.00116437 -5.15052e-05 0)
(-0.000998606 -5.0719e-05 0)
(-0.000836474 -4.94009e-05 0)
(-0.000679828 -4.74166e-05 0)
(-0.000530913 -4.46058e-05 0)
(-0.000392416 -4.07831e-05 0)
(-0.000267488 -3.57418e-05 0)
(-0.000159738 -2.92637e-05 0)
(-7.31302e-05 -2.11726e-05 0)
(-1.16821e-05 -1.14852e-05 0)
(2.1297e-05 -7.60756e-07 0)
(2.59932e-05 8.98242e-06 0)
(1.08707e-05 1.08608e-05 0)
(9.05013e-06 -2.54017e-05 0)
(8.83304e-06 -9.12154e-06 0)
(-3.7083e-05 3.38845e-05 0)
(-0.000140365 8.23601e-05 0)
(-0.000302342 0.000128453 0)
(-0.00051871 0.00016897 0)
(-0.000782698 0.000202917 0)
(-0.0010867 0.000230387 0)
(-0.00142323 0.000251949 0)
(-0.00178537 0.000268358 0)
(-0.00216704 0.000280396 0)
(-0.00256299 0.0002888 0)
(-0.00296883 0.000294238 0)
(-0.00338096 0.000297297 0)
(-0.00379646 0.000298481 0)
(-0.004213 0.000298202 0)
(-0.00462873 0.000296784 0)
(-0.0050422 0.000294494 0)
(-0.0054523 0.00029154 0)
(-0.00585816 0.000288087 0)
(-0.00625911 0.000284252 0)
(-0.00665464 0.000280123 0)
(-0.00704433 0.000275763 0)
(-0.00742786 0.000271223 0)
(-0.00780498 0.000266538 0)
(-0.00817547 0.000261725 0)
(-0.00853913 0.000256804 0)
(-0.00889582 0.000251782 0)
(-0.00924538 0.000246671 0)
(-0.00958771 0.000241483 0)
(-0.0099227 0.00023623 0)
(-0.0102503 0.000230933 0)
(-0.0105703 0.000225599 0)
(-0.0108829 0.000220236 0)
(-0.0111878 0.00021485 0)
(-0.0114852 0.000209447 0)
(-0.0117749 0.000204033 0)
(-0.012057 0.000198623 0)
(-0.0123315 0.000193217 0)
(-0.0125984 0.000187813 0)
(-0.0128577 0.000182428 0)
(-0.0131093 0.000177056 0)
(-0.0133535 0.000171718 0)
(-0.0135902 0.000166422 0)
(-0.0138195 0.000161151 0)
(-0.0140414 0.000155932 0)
(-0.014256 0.000150755 0)
(-0.0144634 0.000145633 0)
(-0.0146636 0.000140595 0)
(-0.0148568 0.000135619 0)
(-0.0150431 0.000130714 0)
(-0.0152225 0.000125897 0)
(-0.0153952 0.000121153 0)
(-0.0155612 0.000116487 0)
(-0.0157207 0.000111901 0)
(-0.0158738 0.000107375 0)
(-0.0160205 0.000102902 0)
(-0.0161609 9.84853e-05 0)
(-0.0162952 9.41193e-05 0)
(-0.0164234 8.97976e-05 0)
(-0.0165456 8.55283e-05 0)
(-0.0166618 8.13221e-05 0)
(-0.0167721 7.71773e-05 0)
(-0.0168767 7.30918e-05 0)
(-0.0169756 6.90745e-05 0)
(-0.017069 6.51281e-05 0)
(-0.0171568 6.12441e-05 0)
(-0.0172392 5.74226e-05 0)
(-0.0173162 5.36698e-05 0)
(-0.017388 4.99746e-05 0)
(-0.0174546 4.63178e-05 0)
(-0.017516 4.26965e-05 0)
(-0.0175723 3.91115e-05 0)
(-0.0176236 3.55458e-05 0)
(-0.0176698 3.19796e-05 0)
(-0.017711 2.841e-05 0)
(-0.0177471 2.48408e-05 0)
(-0.0177782 2.12682e-05 0)
(-0.0178044 1.76899e-05 0)
(-0.0178255 1.41122e-05 0)
(-0.0178415 1.05387e-05 0)
(-0.0178526 6.9638e-06 0)
(-0.0178586 3.38335e-06 0)
(-0.0178596 -2.01854e-07 0)
(-0.0178555 -3.79645e-06 0)
(-0.0178463 -7.41442e-06 0)
(-0.017832 -1.10684e-05 0)
(-0.0178125 -1.47631e-05 0)
(-0.0177878 -1.85031e-05 0)
(-0.0177578 -2.22998e-05 0)
(-0.0177224 -2.61642e-05 0)
(-0.0176815 -3.00988e-05 0)
(-0.017635 -3.41004e-05 0)
(-0.017583 -3.81691e-05 0)
(-0.0175251 -4.23083e-05 0)
(-0.0174614 -4.65196e-05 0)
(-0.0173918 -5.08028e-05 0)
(-0.0173161 -5.51611e-05 0)
(-0.0172342 -5.9604e-05 0)
(-0.0171461 -6.41424e-05 0)
(-0.0170516 -6.8783e-05 0)
(-0.0169505 -7.3529e-05 0)
(-0.0168427 -7.8383e-05 0)
(-0.016728 -8.3346e-05 0)
(-0.0166063 -8.84165e-05 0)
(-0.0164775 -9.35922e-05 0)
(-0.0163414 -9.88743e-05 0)
(-0.0161979 -0.000104269 0)
(-0.0160467 -0.000109785 0)
(-0.0158878 -0.000115426 0)
(-0.015721 -0.000121194 0)
(-0.015546 -0.000127085 0)
(-0.0153628 -0.000133097 0)
(-0.0151712 -0.000139223 0)
(-0.0149709 -0.000145456 0)
(-0.014762 -0.000151789 0)
(-0.0145442 -0.000158217 0)
(-0.0143174 -0.000164738 0)
(-0.0140815 -0.000171349 0)
(-0.0138364 -0.000178047 0)
(-0.0135819 -0.00018482 0)
(-0.013318 -0.000191658 0)
(-0.0130446 -0.000198546 0)
(-0.0127615 -0.000205475 0)
(-0.0124689 -0.000212437 0)
(-0.0121665 -0.000219425 0)
(-0.0118545 -0.000226433 0)
(-0.0115327 -0.000233452 0)
(-0.0112012 -0.000240468 0)
(-0.01086 -0.00024747 0)
(-0.0105092 -0.000254442 0)
(-0.0101488 -0.000261367 0)
(-0.00977879 -0.000268225 0)
(-0.00939945 -0.000274998 0)
(-0.00901088 -0.000281665 0)
(-0.00861326 -0.000288199 0)
(-0.00820684 -0.000294567 0)
(-0.00779188 -0.000300725 0)
(-0.00736874 -0.000306619 0)
(-0.00693785 -0.000312181 0)
(-0.00649976 -0.000317329 0)
(-0.00605518 -0.000321955 0)
(-0.00560495 -0.00032592 0)
(-0.00515019 -0.000329048 0)
(-0.00469223 -0.000331108 0)
(-0.00423279 -0.00033181 0)
(-0.00377402 -0.000330797 0)
(-0.00331858 -0.000327632 0)
(-0.00286977 -0.000321797 0)
(-0.0024316 -0.00031268 0)
(-0.00200889 -0.000299578 0)
(-0.00160734 -0.000281713 0)
(-0.00123358 -0.00025826 0)
(-0.000895057 -0.000228411 0)
(-0.000599886 -0.000191519 0)
(-0.000356359 -0.0001474 0)
(-0.000172001 -9.69731e-05 0)
(-5.17666e-05 -4.34705e-05 0)
(4.95299e-06 4.84729e-06 0)
(9.03357e-06 2.59756e-05 0)
(7.95287e-07 -2.4199e-05 0)
(-3.34486e-05 3.68967e-05 0)
(-0.00014393 0.000144415 0)
(-0.000336279 0.000263582 0)
(-0.000609872 0.000378585 0)
(-0.000959585 0.000481809 0)
(-0.00137698 0.00057014 0)
(-0.00185217 0.00064304 0)
(-0.00237511 0.00070133 0)
(-0.0029363 0.00074648 0)
(-0.0035271 0.00078022 0)
(-0.00413997 0.000804299 0)
(-0.00476845 0.000820358 0)
(-0.00540714 0.000829879 0)
(-0.00605159 0.000834149 0)
(-0.00669822 0.000834253 0)
(-0.00734415 0.000831087 0)
(-0.00798707 0.000825371 0)
(-0.0086252 0.000817684 0)
(-0.00925709 0.000808475 0)
(-0.00988165 0.000798087 0)
(-0.010498 0.00078678 0)
(-0.0111054 0.000774745 0)
(-0.0117034 0.000762128 0)
(-0.0122914 0.000749035 0)
(-0.0128691 0.000735543 0)
(-0.0134362 0.000721707 0)
(-0.0139924 0.000707583 0)
(-0.0145374 0.000693204 0)
(-0.0150712 0.000678606 0)
(-0.0155935 0.000663825 0)
(-0.0161042 0.000648893 0)
(-0.0166031 0.000633841 0)
(-0.0170903 0.0006187 0)
(-0.0175656 0.000603492 0)
(-0.0180289 0.000588234 0)
(-0.0184803 0.000572957 0)
(-0.0189198 0.000557673 0)
(-0.0193473 0.000542408 0)
(-0.0197629 0.000527174 0)
(-0.0201666 0.000511985 0)
(-0.0205584 0.000496868 0)
(-0.0209385 0.000481825 0)
(-0.0213069 0.000466896 0)
(-0.0216637 0.000452087 0)
(-0.022009 0.000437392 0)
(-0.022343 0.000422857 0)
(-0.0226656 0.000408479 0)
(-0.0229771 0.000394269 0)
(-0.0232776 0.000380267 0)
(-0.0235673 0.000366458 0)
(-0.0238462 0.000352844 0)
(-0.0241146 0.000339455 0)
(-0.0243726 0.000326266 0)
(-0.0246203 0.000313263 0)
(-0.024858 0.000300463 0)
(-0.0250857 0.000287838 0)
(-0.0253036 0.000275366 0)
(-0.0255118 0.000263066 0)
(-0.0257105 0.000250934 0)
(-0.0258998 0.000238953 0)
(-0.0260798 0.000227138 0)
(-0.0262508 0.000215506 0)
(-0.0264127 0.000204044 0)
(-0.0265658 0.000192752 0)
(-0.0267102 0.000181638 0)
(-0.026846 0.000170695 0)
(-0.0269733 0.00015991 0)
(-0.0270923 0.000149279 0)
(-0.0272029 0.00013879 0)
(-0.0273054 0.000128418 0)
(-0.0273997 0.000118146 0)
(-0.027486 0.000107958 0)
(-0.0275644 9.78295e-05 0)
(-0.0276348 8.77358e-05 0)
(-0.0276974 7.76657e-05 0)
(-0.0277521 6.76098e-05 0)
(-0.0277989 5.75566e-05 0)
(-0.0278379 4.7502e-05 0)
(-0.0278691 3.74504e-05 0)
(-0.0278925 2.73992e-05 0)
(-0.0279081 1.73356e-05 0)
(-0.0279158 7.24892e-06 0)
(-0.0279156 -2.8682e-06 0)
(-0.0279075 -1.30309e-05 0)
(-0.0278915 -2.32646e-05 0)
(-0.0278674 -3.3593e-05 0)
(-0.0278352 -4.40314e-05 0)
(-0.0277948 -5.45947e-05 0)
(-0.027746 -6.53038e-05 0)
(-0.0276889 -7.61787e-05 0)
(-0.0276233 -8.72294e-05 0)
(-0.027549 -9.84594e-05 0)
(-0.0274659 -0.000109874 0)
(-0.0273739 -0.000121482 0)
(-0.0272728 -0.000133293 0)
(-0.0271624 -0.000145314 0)
(-0.0270426 -0.000157557 0)
(-0.0269132 -0.000170037 0)
(-0.026774 -0.000182771 0)
(-0.0266249 -0.000195775 0)
(-0.0264655 -0.00020906 0)
(-0.0262958 -0.000222635 0)
(-0.0261154 -0.000236505 0)
(-0.0259242 -0.000250674 0)
(-0.0257218 -0.000265144 0)
(-0.0255082 -0.00027992 0)
(-0.025283 -0.000295009 0)
(-0.025046 -0.000310422 0)
(-0.0247969 -0.000326164 0)
(-0.0245356 -0.00034224 0)
(-0.0242618 -0.000358647 0)
(-0.0239751 -0.000375379 0)
(-0.0236755 -0.000392426 0)
(-0.0233626 -0.000409774 0)
(-0.0230362 -0.000427407 0)
(-0.0226961 -0.000445311 0)
(-0.0223422 -0.000463471 0)
(-0.0219741 -0.000481874 0)
(-0.0215919 -0.000500502 0)
(-0.0211951 -0.000519334 0)
(-0.0207839 -0.000538345 0)
(-0.0203579 -0.000557509 0)
(-0.0199171 -0.000576799 0)
(-0.0194614 -0.000596185 0)
(-0.0189907 -0.00061564 0)
(-0.0185051 -0.000635136 0)
(-0.0180044 -0.000654643 0)
(-0.0174888 -0.000674126 0)
(-0.0169582 -0.000693547 0)
(-0.0164127 -0.000712865 0)
(-0.0158525 -0.000732032 0)
(-0.0152776 -0.000750994 0)
(-0.0146884 -0.00076969 0)
(-0.014085 -0.000788049 0)
(-0.0134679 -0.000805991 0)
(-0.0128372 -0.000823415 0)
(-0.0121937 -0.000840201 0)
(-0.0115378 -0.000856196 0)
(-0.0108702 -0.00087121 0)
(-0.0101919 -0.000884999 0)
(-0.00950401 -0.000897248 0)
(-0.00880788 -0.000907558 0)
(-0.00810526 -0.000915426 0)
(-0.00739831 -0.000920219 0)
(-0.00668972 -0.000921156 0)
(-0.00598281 -0.000917279 0)
(-0.00528168 -0.000907441 0)
(-0.0045913 -0.000890295 0)
(-0.00391764 -0.000864292 0)
(-0.00326776 -0.000827714 0)
(-0.00264989 -0.000778734 0)
(-0.00207333 -0.000715537 0)
(-0.00154838 -0.00063654 0)
(-0.00108586 -0.000540782 0)
(-0.000696524 -0.000428649 0)
(-0.000389691 -0.000303165 0)
(-0.000171266 -0.00017205 0)
(-4.29493e-05 -5.17226e-05 0)
(-6.03262e-07 2.14219e-05 0)
(-8.87684e-06 2.35387e-06 0)
(-8.20198e-05 0.000140095 0)
(-0.000263486 0.000336801 0)
(-0.00054846 0.000548251 0)
(-0.000931971 0.000752024 0)
(-0.00140742 0.000936271 0)
(-0.00196493 0.00109556 0)
(-0.00259308 0.00122847 0)
(-0.00328016 0.00133594 0)
(-0.00401492 0.0014201 0)
(-0.00478706 0.00148373 0)
(-0.00558739 0.00152974 0)
(-0.00640797 0.00156096 0)
(-0.00724203 0.00157998 0)
(-0.00808396 0.00158909 0)
(-0.00892914 0.00159026 0)
(-0.00977384 0.00158513 0)
(-0.010615 0.00157504 0)
(-0.0114503 0.00156106 0)
(-0.0122778 0.00154406 0)
(-0.013096 0.00152467 0)
(-0.0139036 0.00150342 0)
(-0.0146997 0.00148067 0)
(-0.0154835 0.00145673 0)
(-0.0162543 0.00143181 0)
(-0.0170117 0.00140606 0)
(-0.0177551 0.00137962 0)
(-0.0184842 0.0013526 0)
(-0.0191988 0.00132507 0)
(-0.0198985 0.00129712 0)
(-0.0205831 0.0012688 0)
(-0.0212524 0.00124019 0)
(-0.0219063 0.00121134 0)
(-0.0225446 0.0011823 0)
(-0.0231673 0.00115312 0)
(-0.0237743 0.00112386 0)
(-0.0243656 0.00109455 0)
(-0.0249412 0.00106524 0)
(-0.025501 0.00103596 0)
(-0.0260451 0.00100676 0)
(-0.0265736 0.000977658 0)
(-0.0270865 0.0009487 0)
(-0.027584 0.00091991 0)
(-0.028066 0.000891312 0)
(-0.0285329 0.000862966 0)
(-0.0289846 0.000834871 0)
(-0.0294214 0.000807048 0)
(-0.0298434 0.000779552 0)
(-0.0302507 0.000752374 0)
(-0.0306436 0.000725543 0)
(-0.0310223 0.0006991 0)
(-0.0313868 0.000673022 0)
(-0.0317375 0.000647316 0)
(-0.0320745 0.000622011 0)
(-0.0323981 0.000597073 0)
(-0.0327083 0.000572487 0)
(-0.0330054 0.000548266 0)
(-0.0332897 0.000524391 0)
(-0.0335613 0.000500839 0)
(-0.0338203 0.000477623 0)
(-0.0340671 0.00045474 0)
(-0.0343017 0.000432178 0)
(-0.0345244 0.000409944 0)
(-0.0347352 0.000388041 0)
(-0.0349345 0.00036646 0)
(-0.0351224 0.000345192 0)
(-0.0352989 0.000324231 0)
(-0.0354643 0.000303559 0)
(-0.0356187 0.000283154 0)
(-0.0357622 0.000262997 0)
(-0.0358949 0.000243061 0)
(-0.0360169 0.000223312 0)
(-0.0361284 0.000203718 0)
(-0.0362293 0.00018425 0)
(-0.0363199 0.000164879 0)
(-0.0364001 0.000145575 0)
(-0.0364699 0.000126317 0)
(-0.0365295 0.000107091 0)
(-0.0365788 8.78794e-05 0)
(-0.0366179 6.86676e-05 0)
(-0.0366467 4.94421e-05 0)
(-0.0366653 3.01879e-05 0)
(-0.0366735 1.08832e-05 0)
(-0.0366714 -8.49957e-06 0)
(-0.0366589 -2.79897e-05 0)
(-0.036636 -4.76172e-05 0)
(-0.0366024 -6.74151e-05 0)
(-0.0365583 -8.74179e-05 0)
(-0.0365033 -0.000107657 0)
(-0.0364375 -0.000128161 0)
(-0.0363607 -0.000148953 0)
(-0.0362727 -0.000170057 0)
(-0.0361733 -0.000191495 0)
(-0.0360625 -0.000213284 0)
(-0.0359399 -0.00023544 0)
(-0.0358055 -0.00025798 0)
(-0.035659 -0.000280927 0)
(-0.0355001 -0.000304303 0)
(-0.0353287 -0.000328134 0)
(-0.0351444 -0.000352442 0)
(-0.0349472 -0.00037725 0)
(-0.0347365 -0.00040258 0)
(-0.0345123 -0.000428451 0)
(-0.0342742 -0.000454876 0)
(-0.034022 -0.000481867 0)
(-0.0337553 -0.000509432 0)
(-0.0334738 -0.000537582 0)
(-0.0331772 -0.000566326 0)
(-0.0328652 -0.000595673 0)
(-0.0325375 -0.00062563 0)
(-0.0321938 -0.0006562 0)
(-0.0318338 -0.000687382 0)
(-0.0314571 -0.000719167 0)
(-0.0310635 -0.000751541 0)
(-0.0306527 -0.000784483 0)
(-0.0302243 -0.000817967 0)
(-0.0297781 -0.000851967 0)
(-0.0293138 -0.000886453 0)
(-0.0288313 -0.000921394 0)
(-0.0283301 -0.000956755 0)
(-0.0278102 -0.0009925 0)
(-0.0272714 -0.00102859 0)
(-0.0267135 -0.00106497 0)
(-0.0261363 -0.0011016 0)
(-0.0255397 -0.00113841 0)
(-0.0249237 -0.00117535 0)
(-0.0242881 -0.00121235 0)
(-0.0236331 -0.00124936 0)
(-0.0229586 -0.0012863 0)
(-0.0222647 -0.00132311 0)
(-0.0215514 -0.00135969 0)
(-0.0208191 -0.00139596 0)
(-0.0200679 -0.0014318 0)
(-0.019298 -0.0014671 0)
(-0.0185099 -0.00150171 0)
(-0.0177039 -0.00153548 0)
(-0.0168807 -0.0015682 0)
(-0.0160408 -0.00159964 0)
(-0.0151852 -0.00162951 0)
(-0.0143147 -0.00165743 0)
(-0.0134306 -0.00168293 0)
(-0.0125344 -0.0017054 0)
(-0.011628 -0.00172409 0)
(-0.0107136 -0.00173803 0)
(-0.00979414 -0.00174606 0)
(-0.00887307 -0.00174671 0)
(-0.0079547 -0.00173826 0)
(-0.00704423 -0.00171861 0)
(-0.00614794 -0.00168536 0)
(-0.00527325 -0.00163581 0)
(-0.00442887 -0.001567 0)
(-0.00362474 -0.00147592 0)
(-0.00287201 -0.00135966 0)
(-0.00218278 -0.00121591 0)
(-0.00156964 -0.00104356 0)
(-0.001045 -0.000843825 0)
(-0.00061966 -0.000622042 0)
(-0.000301128 -0.000390182 0)
(-9.58408e-05 -0.000171288 0)
(-1.118e-05 -1.11275e-05 0)
(-1.77875e-05 5.4858e-05 0)
(-0.000128683 0.000302311 0)
(-0.000380025 0.000611005 0)
(-0.000755011 0.000932129 0)
(-0.001243 0.00123906 0)
(-0.00183517 0.00151684 0)
(-0.00252005 0.00175817 0)
(-0.00328481 0.00196091 0)
(-0.00411654 0.00212604 0)
(-0.00500283 0.00225642 0)
(-0.00593218 0.00235582 0)
(-0.00689428 0.00242837 0)
(-0.00788014 0.00247818 0)
(-0.00888202 0.00250908 0)
(-0.00989341 0.00252447 0)
(-0.0109089 0.00252733 0)
(-0.0119241 0.00252015 0)
(-0.0129354 0.00250501 0)
(-0.0139399 0.00248358 0)
(-0.0149353 0.00245718 0)
(-0.0159197 0.00242687 0)
(-0.0168915 0.00239345 0)
(-0.0178497 0.00235754 0)
(-0.0187931 0.00231961 0)
(-0.019721 0.00228004 0)
(-0.0206326 0.0022391 0)
(-0.0215275 0.002197 0)
(-0.0224052 0.00215393 0)
(-0.0232652 0.00211002 0)
(-0.0241073 0.00206542 0)
(-0.0249312 0.00202022 0)
(-0.0257366 0.00197454 0)
(-0.0265233 0.00192847 0)
(-0.0272913 0.00188209 0)
(-0.0280404 0.00183549 0)
(-0.0287705 0.00178875 0)
(-0.0294815 0.00174194 0)
(-0.0301736 0.00169514 0)
(-0.0308466 0.00164838 0)
(-0.0315007 0.00160175 0)
(-0.0321359 0.00155531 0)
(-0.0327523 0.00150909 0)
(-0.03335 0.00146317 0)
(-0.0339291 0.00141757 0)
(-0.0344898 0.00137234 0)
(-0.0350324 0.00132755 0)
(-0.0355568 0.0012832 0)
(-0.0360634 0.00123934 0)
(-0.0365524 0.00119603 0)
(-0.037024 0.00115325 0)
(-0.0374783 0.00111104 0)
(-0.0379157 0.00106944 0)
(-0.0383363 0.00102843 0)
(-0.0387404 0.000988009 0)
(-0.0391283 0.000948193 0)
(-0.0395001 0.000908965 0)
(-0.0398561 0.000870302 0)
(-0.0401966 0.000832205 0)
(-0.0405219 0.000794669 0)
(-0.040832 0.000757673 0)
(-0.0411273 0.000721209 0)
(-0.041408 0.000685283 0)
(-0.0416743 0.000649882 0)
(-0.0419264 0.000614989 0)
(-0.0421645 0.000580602 0)
(-0.0423889 0.000546708 0)
(-0.0425996 0.00051328 0)
(-0.0427969 0.000480291 0)
(-0.0429809 0.000447719 0)
(-0.0431518 0.000415526 0)
(-0.0433098 0.000383668 0)
(-0.0434548 0.000352107 0)
(-0.0435871 0.000320807 0)
(-0.0437067 0.000289718 0)
(-0.0438138 0.000258793 0)
(-0.0439084 0.000228 0)
(-0.0439906 0.000197307 0)
(-0.0440604 0.000166678 0)
(-0.0441178 0.00013608 0)
(-0.0441629 0.000105488 0)
(-0.0441956 7.48754e-05 0)
(-0.044216 4.42062e-05 0)
(-0.044224 1.34399e-05 0)
(-0.0442195 -1.74603e-05 0)
(-0.0442025 -4.85337e-05 0)
(-0.0441729 -7.9829e-05 0)
(-0.0441306 -0.000111398 0)
(-0.0440755 -0.000143289 0)
(-0.0440075 -0.000175541 0)
(-0.0439263 -0.000208197 0)
(-0.0438319 -0.000241299 0)
(-0.0437241 -0.000274885 0)
(-0.0436026 -0.000308987 0)
(-0.0434673 -0.000343639 0)
(-0.043318 -0.000378872 0)
(-0.0431544 -0.000414721 0)
(-0.0429763 -0.000451217 0)
(-0.0427833 -0.000488395 0)
(-0.0425753 -0.00052629 0)
(-0.0423519 -0.000564939 0)
(-0.0421128 -0.000604376 0)
(-0.0418577 -0.000644632 0)
(-0.0415864 -0.000685734 0)
(-0.0412983 -0.000727706 0)
(-0.0409933 -0.000770569 0)
(-0.0406709 -0.000814341 0)
(-0.0403309 -0.000859035 0)
(-0.0399727 -0.000904664 0)
(-0.0395961 -0.000951238 0)
(-0.0392007 -0.000998767 0)
(-0.0387861 -0.00104725 0)
(-0.0383519 -0.00109669 0)
(-0.0378978 -0.00114707 0)
(-0.0374235 -0.00119836 0)
(-0.0369285 -0.00125055 0)
(-0.0364126 -0.00130358 0)
(-0.0358753 -0.00135743 0)
(-0.0353165 -0.00141205 0)
(-0.0347357 -0.00146738 0)
(-0.0341327 -0.00152338 0)
(-0.0335074 -0.00157999 0)
(-0.0328593 -0.00163714 0)
(-0.0321884 -0.00169475 0)
(-0.0314945 -0.00175274 0)
(-0.0307774 -0.00181103 0)
(-0.0300371 -0.00186951 0)
(-0.0292735 -0.00192808 0)
(-0.0284865 -0.00198664 0)
(-0.0276763 -0.00204509 0)
(-0.0268429 -0.00210329 0)
(-0.0259865 -0.0021611 0)
(-0.0251072 -0.00221838 0)
(-0.0242055 -0.00227494 0)
(-0.0232815 -0.00233059 0)
(-0.0223358 -0.0023851 0)
(-0.021369 -0.00243821 0)
(-0.0203816 -0.0024896 0)
(-0.0193746 -0.00253888 0)
(-0.0183489 -0.00258558 0)
(-0.0173057 -0.00262909 0)
(-0.0162466 -0.00266864 0)
(-0.0151734 -0.00270328 0)
(-0.0140883 -0.00273182 0)
(-0.0129941 -0.00275276 0)
(-0.0118942 -0.00276428 0)
(-0.0107929 -0.00276415 0)
(-0.00969497 -0.00274969 0)
(-0.00860666 -0.00271777 0)
(-0.00753516 -0.00266482 0)
(-0.00648895 -0.00258684 0)
(-0.00547787 -0.00247959 0)
(-0.00451306 -0.00233878 0)
(-0.00360692 -0.00216045 0)
(-0.00277276 -0.00194155 0)
(-0.00202449 -0.00168085 0)
(-0.00137592 -0.00138031 0)
(-0.000839572 -0.00104704 0)
(-0.000425287 -0.000696035 0)
(-0.000145579 -0.000354324 0)
(-2.06885e-05 -7.17588e-05 0)
(-2.53563e-05 0.000130881 0)
(-0.00017022 0.000520005 0)
(-0.000486021 0.000962868 0)
(-0.000944381 0.00140978 0)
(-0.00152861 0.00183222 0)
(-0.00222717 0.00221354 0)
(-0.00302667 0.00254536 0)
(-0.00391291 0.00282513 0)
(-0.00487188 0.0030541 0)
(-0.00589027 0.00323589 0)
(-0.00695574 0.00337534 0)
(-0.00805719 0.00347784 0)
(-0.00918488 0.0035488 0)
(-0.0103304 0.00359333 0)
(-0.0114865 0.00361607 0)
(-0.0126474 0.00362104 0)
(-0.013808 0.0036117 0)
(-0.0149643 0.0035909 0)
(-0.016113 0.003561 0)
(-0.0172514 0.00352385 0)
(-0.0183774 0.00348095 0)
(-0.0194892 0.00343345 0)
(-0.0205853 0.00338225 0)
(-0.0216647 0.00332804 0)
(-0.0227263 0.00327137 0)
(-0.0237693 0.00321266 0)
(-0.0247932 0.00315223 0)
(-0.0257972 0.00309035 0)
(-0.026781 0.00302724 0)
(-0.0277442 0.0029631 0)
(-0.0286865 0.00289809 0)
(-0.0296075 0.00283237 0)
(-0.0305071 0.00276608 0)
(-0.0313851 0.00269935 0)
(-0.0322413 0.0026323 0)
(-0.0330758 0.00256504 0)
(-0.0338884 0.00249769 0)
(-0.0346791 0.00243035 0)
(-0.035448 0.00236309 0)
(-0.0361951 0.00229602 0)
(-0.0369205 0.00222923 0)
(-0.0376243 0.00216278 0)
(-0.0383067 0.00209676 0)
(-0.0389678 0.00203123 0)
(-0.0396077 0.00196624 0)
(-0.0402268 0.00190186 0)
(-0.0408252 0.00183816 0)
(-0.041403 0.00177516 0)
(-0.0419607 0.00171291 0)
(-0.0424984 0.00165146 0)
(-0.0430164 0.00159083 0)
(-0.0435149 0.00153102 0)
(-0.0439942 0.00147208 0)
(-0.0444546 0.001414 0)
(-0.0448964 0.00135676 0)
(-0.0453198 0.00130037 0)
(-0.0457252 0.00124483 0)
(-0.0461127 0.0011901 0)
(-0.0464827 0.00113618 0)
(-0.0468355 0.00108307 0)
(-0.0471713 0.00103074 0)
(-0.0474904 0.000979168 0)
(-0.0477931 0.00092836 0)
(-0.0480795 0.000878293 0)
(-0.0483499 0.000828937 0)
(-0.0486045 0.000780269 0)
(-0.0488436 0.000732262 0)
(-0.0490673 0.000684878 0)
(-0.0492758 0.000638074 0)
(-0.0494692 0.000591801 0)
(-0.0496479 0.000546007 0)
(-0.0498118 0.000500639 0)
(-0.0499611 0.000455643 0)
(-0.0500959 0.000410964 0)
(-0.0502164 0.000366545 0)
(-0.0503226 0.000322328 0)
(-0.0504146 0.000278265 0)
(-0.0504925 0.000234308 0)
(-0.0505562 0.000190412 0)
(-0.0506058 0.000146528 0)
(-0.0506413 0.000102607 0)
(-0.0506627 5.85967e-05 0)
(-0.0506699 1.44462e-05 0)
(-0.0506628 -2.99012e-05 0)
(-0.0506415 -7.45082e-05 0)
(-0.0506058 -0.00011944 0)
(-0.0505555 -0.000164758 0)
(-0.0504907 -0.000210524 0)
(-0.050411 -0.000256799 0)
(-0.0503164 -0.000303645 0)
(-0.0502066 -0.000351118 0)
(-0.0500816 -0.000399268 0)
(-0.049941 -0.000448145 0)
(-0.0497846 -0.000497801 0)
(-0.0496121 -0.000548289 0)
(-0.0494234 -0.000599656 0)
(-0.0492181 -0.000651948 0)
(-0.0489959 -0.000705213 0)
(-0.0487565 -0.000759498 0)
(-0.0484996 -0.000814856 0)
(-0.0482248 -0.000871333 0)
(-0.0479318 -0.000928971 0)
(-0.0476201 -0.000987809 0)
(-0.0472895 -0.00104788 0)
(-0.0469395 -0.00110922 0)
(-0.0465698 -0.00117185 0)
(-0.0461799 -0.00123578 0)
(-0.0457693 -0.00130105 0)
(-0.0453378 -0.00136766 0)
(-0.0448848 -0.00143562 0)
(-0.04441 -0.00150494 0)
(-0.0439129 -0.0015756 0)
(-0.0433932 -0.00164759 0)
(-0.0428504 -0.00172087 0)
(-0.0422841 -0.00179542 0)
(-0.0416939 -0.00187117 0)
(-0.0410795 -0.00194808 0)
(-0.0404405 -0.00202608 0)
(-0.0397765 -0.00210511 0)
(-0.0390873 -0.00218509 0)
(-0.0383726 -0.00226594 0)
(-0.0376321 -0.00234755 0)
(-0.0368656 -0.00242982 0)
(-0.0360729 -0.00251262 0)
(-0.0352538 -0.00259584 0)
(-0.0344083 -0.00267933 0)
(-0.0335362 -0.00276294 0)
(-0.0326377 -0.00284653 0)
(-0.0317127 -0.00292993 0)
(-0.0307613 -0.00301295 0)
(-0.0297837 -0.00309538 0)
(-0.0287802 -0.00317701 0)
(-0.0277512 -0.00325756 0)
(-0.0266969 -0.00333676 0)
(-0.025618 -0.00341427 0)
(-0.0245151 -0.00348971 0)
(-0.023389 -0.00356262 0)
(-0.0222406 -0.00363243 0)
(-0.0210712 -0.00369844 0)
(-0.0198822 -0.00375977 0)
(-0.0186752 -0.00381534 0)
(-0.0174525 -0.00386378 0)
(-0.0162165 -0.0039034 0)
(-0.0149705 -0.00393213 0)
(-0.0137183 -0.00394739 0)
(-0.0124645 -0.00394609 0)
(-0.0112147 -0.00392458 0)
(-0.00997569 -0.00387857 0)
(-0.00875533 -0.00380324 0)
(-0.00756287 -0.00369327 0)
(-0.00640893 -0.00354307 0)
(-0.00530551 -0.00334704 0)
(-0.00426586 -0.00310012 0)
(-0.00330427 -0.00279849 0)
(-0.00243575 -0.0024406 0)
(-0.00167559 -0.00202874 0)
(-0.00103825 -0.00157101 0)
(-0.000536457 -0.0010839 0)
(-0.0001891 -0.000595944 0)
(-2.85996e-05 -0.000157158 0)
(-3.15358e-05 0.000227 0)
(-0.000205672 0.000787041 0)
(-0.000578484 0.00138498 0)
(-0.0011114 0.00197268 0)
(-0.00178197 0.00252166 0)
(-0.0025757 0.00301491 0)
(-0.00347717 0.00344384 0)
(-0.00447063 0.00380603 0)
(-0.00554105 0.00410329 0)
(-0.00667429 0.00434015 0)
(-0.00785737 0.00452261 0)
(-0.00907859 0.00465737 0)
(-0.0103277 0.00475121 0)
(-0.0115957 0.00481056 0)
(-0.0128751 0.0048413 0)
(-0.0141594 0.00484858 0)
(-0.0154433 0.00483684 0)
(-0.0167225 0.00480979 0)
(-0.0179933 0.00477048 0)
(-0.0192528 0.00472137 0)
(-0.0204985 0.00466442 0)
(-0.0217286 0.00460118 0)
(-0.0229415 0.00453285 0)
(-0.0241357 0.00446038 0)
(-0.0253103 0.00438449 0)
(-0.0264642 0.00430578 0)
(-0.0275968 0.00422469 0)
(-0.0287075 0.00414161 0)
(-0.0297957 0.00405685 0)
(-0.0308609 0.00397066 0)
(-0.0319028 0.0038833 0)
(-0.0329211 0.00379497 0)
(-0.0339156 0.00370586 0)
(-0.034886 0.00361616 0)
(-0.0358323 0.00352603 0)
(-0.0367543 0.00343563 0)
(-0.037652 0.00334511 0)
(-0.0385255 0.00325459 0)
(-0.0393746 0.00316423 0)
(-0.0401996 0.00307412 0)
(-0.0410004 0.00298439 0)
(-0.0417773 0.00289515 0)
(-0.0425304 0.00280648 0)
(-0.0432598 0.00271848 0)
(-0.0439658 0.00263125 0)
(-0.0446486 0.00254484 0)
(-0.0453085 0.00245933 0)
(-0.0459456 0.00237479 0)
(-0.0465603 0.00229126 0)
(-0.0471529 0.00220879 0)
(-0.0477237 0.00212743 0)
(-0.0482729 0.00204718 0)
(-0.0488008 0.00196807 0)
(-0.0493078 0.00189012 0)
(-0.0497941 0.00181331 0)
(-0.0502602 0.00173765 0)
(-0.0507062 0.00166312 0)
(-0.0511326 0.00158972 0)
(-0.0515396 0.00151742 0)
(-0.0519275 0.0014462 0)
(-0.0522966 0.00137604 0)
(-0.0526472 0.00130693 0)
(-0.0529797 0.00123883 0)
(-0.0532942 0.00117172 0)
(-0.053591 0.00110557 0)
(-0.0538703 0.00104033 0)
(-0.0541325 0.000975969 0)
(-0.0543777 0.000912424 0)
(-0.0546061 0.000849649 0)
(-0.0548179 0.000787582 0)
(-0.0550133 0.000726152 0)
(-0.0551925 0.000665292 0)
(-0.0553555 0.000604935 0)
(-0.0555025 0.000545011 0)
(-0.0556337 0.000485444 0)
(-0.0557492 0.000426168 0)
(-0.0558489 0.000367115 0)
(-0.055933 0.000308213 0)
(-0.0560015 0.000249394 0)
(-0.0560544 0.000190593 0)
(-0.0560918 0.000131747 0)
(-0.0561136 7.27839e-05 0)
(-0.0561197 1.36252e-05 0)
(-0.0561101 -4.58065e-05 0)
(-0.0560848 -0.000105588 0)
(-0.0560435 -0.000165799 0)
(-0.0559863 -0.000226521 0)
(-0.0559129 -0.000287836 0)
(-0.0558232 -0.000349824 0)
(-0.055717 -0.000412562 0)
(-0.0555941 -0.000476124 0)
(-0.0554544 -0.000540582 0)
(-0.0552974 -0.000606005 0)
(-0.0551231 -0.000672462 0)
(-0.0549312 -0.000740022 0)
(-0.0547212 -0.000808752 0)
(-0.054493 -0.000878717 0)
(-0.0542461 -0.000949979 0)
(-0.0539803 -0.0010226 0)
(-0.0536952 -0.00109666 0)
(-0.0533904 -0.00117219 0)
(-0.0530655 -0.00124928 0)
(-0.0527201 -0.00132795 0)
(-0.0523537 -0.00140827 0)
(-0.0519661 -0.00149026 0)
(-0.0515566 -0.00157397 0)
(-0.0511249 -0.00165942 0)
(-0.0506706 -0.00174664 0)
(-0.050193 -0.00183564 0)
(-0.0496919 -0.00192644 0)
(-0.0491667 -0.00201903 0)
(-0.048617 -0.00211341 0)
(-0.0480423 -0.00220955 0)
(-0.0474422 -0.0023074 0)