/*--------------------------------*- C++ -*----------------------------------*\
  =========                 |
  \\      /  F ield         | OpenFOAM: The Open Source CFD Toolbox
   \\    /   O peration     | Website:  https://openfoam.org
    \\  /    A nd           | Version:  7
     \\/     M anipulation  |
\*---------------------------------------------------------------------------*/
FoamFile
{
    version     2.0;
    format      ascii;
    class       volScalarField;
    location    "0.3";
    object      p;
}
// * * * * * * * * * * * * * * * * * * * * * * * * * * * * * * * * * * * * * //

dimensions      [0 2 -2 0 0 0 0];

internalField   nonuniform List<scalar> 
12800
(
2.78229e-07
0.000182526
-0.000902542
-0.00334667
-0.00690458
-0.0113294
-0.0163879
-0.0218666
-0.027579
-0.0333649
-0.039088
-0.0446328
-0.0499022
-0.0548145
-0.059302
-0.0633084
-0.0667881
-0.0697044
-0.0720284
-0.0737383
-0.0748183
-0.0752581
-0.0750518
-0.0741978
-0.0726979
-0.0705572
-0.0677833
-0.0643862
-0.0603779
-0.0557717
-0.0505828
-0.044827
-0.0385214
-0.0316835
-0.0243316
-0.016484
-0.00815956
0.00062307
0.00984514
0.0194881
0.0295335
0.0399633
0.0507599
0.0619059
0.0733847
0.0851798
0.0972757
0.109657
0.122309
0.135219
0.148371
0.161755
0.175358
0.189167
0.203173
0.217366
0.231734
0.24627
0.260965
0.27581
0.290799
0.305924
0.321178
0.336557
0.352054
0.367663
0.383382
0.399204
0.415126
0.431144
0.447255
0.463456
0.479743
0.496114
0.512566
0.529098
0.545706
0.562388
0.579143
0.595967
0.61286
0.629819
0.646841
0.663924
0.681065
0.698263
0.715513
0.732813
0.750159
0.767547
0.784973
0.802433
0.819921
0.837432
0.854959
0.872496
0.890036
0.90757
0.92509
0.942586
0.960048
0.977465
0.994825
1.01212
1.02932
1.04643
1.06343
1.08029
1.09701
1.11356
1.12993
1.14609
1.16202
1.17771
1.19312
1.20823
1.22301
1.23745
1.25152
1.26518
1.27841
1.29118
1.30347
1.31523
1.32646
1.33711
1.34716
1.35658
1.36535
1.37344
1.38082
1.38747
1.39337
1.39851
1.40287
1.40642
1.40918
1.41112
1.41225
1.41256
1.41208
1.41081
1.40877
1.40599
1.40251
1.39838
1.39365
1.38839
1.38267
1.3766
1.37029
1.36387
1.35751
1.35137
1.34568
1.34067
1.33663
1.33382
1.33254
1.3327
-0.000181555
1.5355e-06
-0.00100135
-0.00313358
-0.00617137
-0.00993925
-0.0142634
-0.0189732
-0.0239121
-0.028941
-0.0339375
-0.0387958
-0.0434246
-0.047746
-0.051694
-0.0552134
-0.0582581
-0.0607908
-0.0627811
-0.0642057
-0.0650468
-0.0652918
-0.0649327
-0.0639656
-0.0623898
-0.0602079
-0.0574253
-0.0540495
-0.05009
-0.0455581
-0.0404665
-0.0348291
-0.0286608
-0.0219771
-0.0147944
-0.00712925
0.00100129
0.00958009
0.0185899
0.0280137
0.0378342
0.0480348
0.0585989
0.0695101
0.0807528
0.0923114
0.104171
0.116317
0.128736
0.141414
0.154339
0.167497
0.180878
0.19447
0.208262
0.222245
0.236409
0.250744
0.265242
0.279896
0.294698
0.30964
0.324717
0.339921
0.355248
0.370692
0.386248
0.401911
0.417677
0.433542
0.449503
0.465555
0.481696
0.497923
0.514232
0.530621
0.547086
0.563627
0.580239
0.596921
0.613669
0.630482
0.647356
0.664289
0.681278
0.698319
0.71541
0.732546
0.749724
0.766939
0.784187
0.801463
0.818762
0.836077
0.853402
0.870729
0.888053
0.905363
0.922652
0.939909
0.957125
0.974287
0.991385
1.00841
1.02534
1.04216
1.05886
1.07543
1.09184
1.10808
1.12413
1.13997
1.15557
1.17092
1.186
1.20078
1.21523
1.22934
1.24307
1.2564
1.26931
1.28177
1.29375
1.30522
1.31617
1.32655
1.33635
1.34555
1.35411
1.36201
1.36924
1.37577
1.38158
1.38666
1.391
1.39458
1.3974
1.39945
1.40074
1.40127
1.40106
1.40011
1.39845
1.39611
1.39313
1.38956
1.38545
1.38086
1.37589
1.3706
1.36513
1.35958
1.3541
1.34884
1.34399
1.33975
1.33631
1.33387
1.3327
1.33286
0.000902494
0.00100542
1.78769e-06
-0.00198237
-0.00473194
-0.00810471
-0.0119604
-0.0161573
-0.0205621
-0.0250533
-0.029522
-0.0338717
-0.0380182
-0.0418883
-0.0454191
-0.0485573
-0.051258
-0.0534839
-0.0552047
-0.0563961
-0.0570395
-0.057121
-0.0566312
-0.0555646
-0.053919
-0.0516953
-0.0488969
-0.0455297
-0.0416014
-0.0371216
-0.0321014
-0.0265528
-0.0204891
-0.0139245
-0.00687356
0.000648387
0.00862575
0.0170427
0.0258832
0.0351313
0.044771
0.0547865
0.0651621
0.0758827
0.086933
0.0982984
0.109965
0.121918
0.134145
0.146632
0.159368
0.17234
0.185536
0.198947
0.212561
0.226369
0.24036
0.254527
0.268861
0.283353
0.297997
0.312785
0.32771
0.342767
0.357949
0.373252
0.388669
0.404196
0.419828
0.435562
0.451393
0.467318
0.483333
0.499435
0.51562
0.531885
0.548228
0.564646
0.581135
0.597692
0.614316
0.631003
0.647749
0.664552
0.681409
0.698316
0.715269
0.732265
0.749298
0.766365
0.783461
0.800581
0.817718
0.834866
0.852019
0.86917
0.886311
0.903433
0.920527
0.937584
0.954594
0.971544
0.988424
1.00522
1.02192
1.03851
1.05497
1.07129
1.08745
1.10343
1.11922
1.1348
1.15013
1.16522
1.18002
1.19453
1.20871
1.22255
1.23602
1.24909
1.26174
1.27395
1.28569
1.29693
1.30765
1.31783
1.32744
1.33645
1.34486
1.35262
1.35974
1.36617
1.37192
1.37697
1.3813
1.38491
1.38779
1.38995
1.39137
1.39208
1.39208
1.3914
1.39004
1.38805
1.38547
1.38233
1.37869
1.37463
1.3702
1.3655
1.36063
1.35569
1.35082
1.34616
1.34185
1.33806
1.33496
1.3327
1.33153
1.33159
0.00334817
0.00314092
0.0019844
-4.98764e-06
-0.00264797
-0.00582096
-0.00940403
-0.0132765
-0.0173236
-0.0214392
-0.0255267
-0.0294992
-0.0332799
-0.0368009
-0.0400037
-0.0428376
-0.0452597
-0.047234
-0.0487306
-0.0497257
-0.0502002
-0.0501397
-0.0495342
-0.048377
-0.0466651
-0.0443981
-0.0415782
-0.03821
-0.0342999
-0.0298562
-0.0248884
-0.0194075
-0.0134255
-0.00695507
-9.78317e-06
0.00739632
0.0152488
0.0235328
0.0322335
0.0413358
0.0508246
0.0606851
0.0709024
0.0814619
0.0923493
0.103551
0.115052
0.12684
0.138902
0.151226
0.163799
0.176609
0.189646
0.202899
0.216358
0.230013
0.243854
0.257873
0.272062
0.286412
0.300916
0.315568
0.330359
0.345284
0.360337
0.375513
0.390806
0.406211
0.421723
0.437339
0.453054
0.468863
0.484764
0.500752
0.516825
0.532978
0.54921
0.565515
0.581892
0.598338
0.614848
0.63142
0.64805
0.664736
0.681473
0.698259
0.715087
0.731956
0.74886
0.765794
0.782753
0.799733
0.816726
0.833726
0.850727
0.867721
0.8847
0.901656
0.91858
0.935462
0.952291
0.969056
0.985746
1.00235
1.01885
1.03523
1.05149
1.06759
1.08354
1.09931
1.11487
1.13022
1.14534
1.16019
1.17477
1.18905
1.20301
1.21663
1.22987
1.24273
1.25517
1.26717
1.27871
1.28977
1.30031
1.31032
1.31977
1.32865
1.33693
1.34459
1.35162
1.35799
1.3637
1.36872
1.37306
1.3767
1.37965
1.38189
1.38344
1.3843
1.38448
1.38401
1.38291
1.3812
1.37893
1.37614
1.37287
1.3692
1.36519
1.36092
1.35648
1.35198
1.34752
1.34323
1.33923
1.33568
1.3327
1.33043
1.32909
1.32878
0.00691834
0.00619068
0.00473741
0.00262597
-2.7642e-05
-0.00311744
-0.00654039
-0.0101948
-0.0139828
-0.0178126
-0.0215994
-0.0252661
-0.0287434
-0.0319697
-0.0348909
-0.0374599
-0.0396365
-0.0413862
-0.0426807
-0.0434965
-0.0438149
-0.0436215
-0.0429059
-0.041661
-0.0398829
-0.0375703
-0.0347247
-0.0313495
-0.0274501
-0.0230336
-0.0181085
-0.0126845
-0.00677259
-0.000384312
0.00646789
0.013771
0.0215117
0.029676
0.0382501
0.0472198
0.0565709
0.0662893
0.076361
0.086772
0.0975086
0.108557
0.119905
0.13154
0.143448
0.155618
0.168037
0.180696
0.193583
0.206687
0.219998
0.233508
0.247206
0.261084
0.275134
0.289348
0.303718
0.318238
0.3329
0.347699
0.362627
0.37768
0.392853
0.408139
0.423534
0.439035
0.454635
0.470332
0.486121
0.501999
0.517961
0.534005
0.550126
0.566322
0.582589
0.598924
0.615323
0.631782
0.648299
0.66487
0.68149
0.698156
0.714863
0.731608
0.748386
0.76519
0.782017
0.798861
0.815714
0.832572
0.849426
0.866269
0.883094
0.899891
0.916652
0.933366
0.950024
0.966614
0.983124
0.999542
1.01585
1.03205
1.04811
1.06402
1.07976
1.09532
1.11069
1.12583
1.14074
1.15539
1.16976
1.18383
1.19758
1.21099
1.22404
1.2367
1.24895
1.26077
1.27213
1.28302
1.2934
1.30327
1.31259
1.32134
1.32952
1.33709
1.34404
1.35036
1.35604
1.36105
1.3654
1.36908
1.37209
1.37442
1.37608
1.37708
1.37743
1.37716
1.37628
1.37482
1.37282
1.37033
1.36738
1.36404
1.36037
1.35645
1.35236
1.34818
1.34401
1.33997
1.33617
1.33271
1.32972
1.32732
1.32564
1.32473
0.0113769
0.0099873
0.00812519
0.00579294
0.00302906
-7.71386e-05
-0.00343715
-0.00696655
-0.0105831
-0.0142082
-0.0177683
-0.0211958
-0.024429
-0.0274126
-0.0300976
-0.0324408
-0.0344048
-0.0359578
-0.0370728
-0.0377274
-0.0379039
-0.037588
-0.0367694
-0.0354407
-0.0335977
-0.0312386
-0.0283641
-0.024977
-0.0210817
-0.0166845
-0.0117929
-0.00641584
-0.000563029
0.00575477
0.0125261
0.0197389
0.0273807
0.0354385
0.0438993
0.0527498
0.0619764
0.0715659
0.081505
0.0917802
0.102379
0.113288
0.124494
0.135986
0.147751
0.159778
0.172056
0.184573
0.197318
0.210283
0.223456
0.236828
0.250392
0.264137
0.278055
0.29214
0.306383
0.320777
0.335316
0.349993
0.364802
0.379737
0.394793
0.409965
0.425248
0.440637
0.456127
0.471715
0.487395
0.503165
0.51902
0.534957
0.550972
0.567061
0.58322
0.599447
0.615737
0.632087
0.648494
0.664952
0.681458
0.698009
0.714599
0.731224
0.747879
0.764559
0.781258
0.797971
0.814691
0.831411
0.848125
0.864825
0.881502
0.898148
0.914755
0.931311
0.947807
0.964232
0.980573
0.99682
1.01296
1.02897
1.04485
1.06058
1.07614
1.09151
1.10669
1.12164
1.13636
1.15081
1.165
1.17888
1.19245
1.20568
1.21854
1.23103
1.24311
1.25477
1.26597
1.27671
1.28696
1.2967
1.3059
1.31456
1.32264
1.33014
1.33703
1.34331
1.34897
1.35398
1.35835
1.36207
1.36513
1.36755
1.36931
1.37044
1.37095
1.37085
1.37017
1.36893
1.36717
1.36492
1.36224
1.35917
1.35578
1.35212
1.34829
1.34434
1.34037
1.33647
1.33274
1.32927
1.32616
1.32352
1.32137
1.31971
0.0165027
0.0143659
0.0120146
0.00938208
0.00642469
0.00321693
-0.000164943
-0.00365197
-0.007176
-0.0106706
-0.0140727
-0.0173236
-0.0203693
-0.0231607
-0.0256539
-0.02781
-0.0295949
-0.0309793
-0.0319382
-0.0324509
-0.0325005
-0.0320736
-0.03116
-0.0297526
-0.0278471
-0.0254415
-0.0225359
-0.0191326
-0.0152356
-0.0108503
-0.00598364
-0.000643566
0.00516085
0.0114197
0.0181223
0.0252575
0.0328136
0.0407783
0.0491395
0.0578844
0.0670004
0.0764748
0.0862949
0.096448
0.106922
0.117703
0.128781
0.140143
0.151778
0.163674
0.175821
0.188207
0.200822
0.213657
0.226702
0.239947
0.253384
0.267004
0.2808
0.294763
0.308886
0.323162
0.337584
0.352146
0.366842
0.381665
0.396611
0.411674
0.426849
0.44213
0.457515
0.472998
0.488574
0.50424
0.519992
0.535826
0.551737
0.567723
0.583779
0.599902
0.616087
0.632332
0.648631
0.664981
0.681378
0.697818
0.714295
0.730805
0.747343
0.763903
0.78048
0.797069
0.813661
0.830252
0.846833
0.863397
0.879936
0.89644
0.912902
0.92931
0.945656
0.961927
0.978112
0.994199
1.01017
1.02603
1.04174
1.0573
1.07269
1.08789
1.10289
1.11768
1.13222
1.14651
1.16052
1.17424
1.18764
1.20071
1.21342
1.22575
1.23769
1.2492
1.26027
1.27089
1.28102
1.29065
1.29975
1.30832
1.31634
1.32378
1.33063
1.33688
1.34252
1.34754
1.35193
1.35569
1.35882
1.36131
1.36318
1.36442
1.36507
1.36512
1.36461
1.36355
1.36198
1.35994
1.35747
1.35462
1.35144
1.34798
1.34432
1.34052
1.33666
1.33281
1.32906
1.32547
1.32215
1.31917
1.31648
1.31398
0.0220945
0.0191648
0.0162707
0.0132785
0.0100626
0.00668496
0.00321183
-0.000301657
-0.00379996
-0.00722764
-0.0105314
-0.0136608
-0.0165692
-0.0192137
-0.0215555
-0.0235599
-0.0251964
-0.0264385
-0.0272636
-0.0276526
-0.0275898
-0.027063
-0.0260626
-0.0245819
-0.0226166
-0.0201648
-0.0172265
-0.0138036
-0.00989974
-0.0055198
-0.000670124
0.00464188
0.0104078
0.0166184
0.0232637
0.0303332
0.0378158
0.0457002
0.0539746
0.062627
0.0716456
0.081018
0.0907322
0.100776
0.111138
0.121805
0.132767
0.144011
0.155527
0.167304
0.17933
0.191597
0.204092
0.216808
0.229734
0.242861
0.256181
0.269685
0.283366
0.297215
0.311226
0.325391
0.339703
0.354156
0.368745
0.383462
0.398303
0.413262
0.428334
0.443514
0.458797
0.47418
0.489656
0.505223
0.520876
0.53661
0.552423
0.568309
0.584265
0.600288
0.616373
0.632515
0.648712
0.664958
0.68125
0.697583
0.713951
0.730351
0.746777
0.763224
0.779685
0.796155
0.812627
0.829095
0.845551
0.861987
0.878395
0.894767
0.911093
0.927364
0.943569
0.959697
0.975738
0.991678
1.00751
1.02321
1.03877
1.05417
1.06941
1.08446
1.09931
1.11394
1.12833
1.14247
1.15633
1.1699
1.18316
1.19608
1.20865
1.22085
1.23266
1.24405
1.25501
1.26552
1.27555
1.28509
1.29412
1.30263
1.31058
1.31798
1.3248
1.33104
1.33668
1.34171
1.34613
1.34993
1.35312
1.35568
1.35764
1.35899
1.35975
1.35994
1.35957
1.35867
1.35726
1.35539
1.35309
1.35039
1.34736
1.34404
1.34048
1.33676
1.33293
1.32905
1.3252
1.32143
1.31782
1.31444
1.31114
1.30776
0.0279771
0.0242357
0.0207664
0.0173723
0.0138489
0.0102481
0.00662806
0.00303174
-0.000496486
-0.00391105
-0.00716747
-0.0102232
-0.0130385
-0.0155761
-0.0178025
-0.0196872
-0.0212033
-0.0223273
-0.023039
-0.0233212
-0.0231598
-0.0225437
-0.0214643
-0.0199155
-0.0178934
-0.0153962
-0.0124239
-0.00897847
-0.00506313
-0.000682576
0.00415727
0.00944945
0.0151861
0.0213584
0.027957
0.034972
0.0423929
0.0502089
0.0584088
0.0669812
0.0759148
0.0851978
0.0948188
0.104766
0.115028
0.125593
0.136451
0.147589
0.158998
0.170666
0.182584
0.194741
0.207127
0.219733
0.23255
0.245568
0.25878
0.272177
0.285751
0.299494
0.3134
0.327461
0.34167
0.356022
0.370509
0.385126
0.399868
0.414729
0.429703
0.444786
0.459973
0.475259
0.490641
0.506112
0.52167
0.537309
0.553027
0.568818
0.584678
0.600605
0.616593
0.632638
0.648736
0.664882
0.681073
0.697304
0.713569
0.729864
0.746183
0.762521
0.778873
0.79523
0.811589
0.82794
0.844278
0.860594
0.87688
0.893128
0.909328
0.92547
0.941546
0.957542
0.97345
0.989256
1.00495
1.02051
1.03594
1.0512
1.0663
1.08121
1.09592
1.11042
1.12467
1.13867
1.1524
1.16584
1.17898
1.19178
1.20423
1.21632
1.22802
1.23931
1.25018
1.26059
1.27055
1.28002
1.28899
1.29744
1.30536
1.31273
1.31953
1.32576
1.33141
1.33646
1.34091
1.34476
1.348
1.35064
1.35268
1.35413
1.35499
1.35529
1.35504
1.35427
1.35299
1.35125
1.34907
1.34649
1.34356
1.34032
1.33681
1.3331
1.32924
1.32527
1.32125
1.31724
1.31329
1.30946
1.30553
1.30124
0.0339994
0.029446
0.0253852
0.0215609
0.0176944
0.0138298
0.0100187
0.00629387
0.00268972
-0.000756915
-0.00400953
-0.00703282
-0.00979322
-0.0122594
-0.0144023
-0.016196
-0.017617
-0.0186448
-0.0192618
-0.0194528
-0.0192056
-0.0185102
-0.0173593
-0.0157473
-0.0136712
-0.0111293
-0.00812208
-0.00465134
-0.000720361
0.00366633
0.00850307
0.0137832
0.0194992
0.0256427
0.0322048
0.039176
0.0465463
0.0543054
0.0624426
0.070947
0.0798077
0.0890136
0.0985534
0.108416
0.11859
0.129066
0.139831
0.150875
0.162188
0.173759
0.185578
0.197636
0.209923
0.22243
0.235147
0.248066
0.261178
0.274476
0.287951
0.301597
0.315405
0.329369
0.343483
0.357739
0.372131
0.386654
0.401303
0.41607
0.430953
0.445944
0.46104
0.476235
0.491525
0.506906
0.522373
0.537922
0.553548
0.569248
0.585017
0.600852
0.616747
0.632698
0.648702
0.664754
0.680848
0.696981
0.713148
0.729343
0.745561
0.761796
0.778043
0.794295
0.810545
0.826788
0.843015
0.859218
0.87539
0.891522
0.907605
0.923629
0.939585
0.955461
0.971246
0.986929
1.0025
1.01794
1.03324
1.04838
1.06335
1.07814
1.09273
1.1071
1.12124
1.13512
1.14874
1.16207
1.17509
1.18779
1.20015
1.21214
1.22375
1.23496
1.24575
1.2561
1.26599
1.27541
1.28433
1.29275
1.30064
1.30799
1.31479
1.32103
1.32669
1.33177
1.33626
1.34015
1.34345
1.34616
1.34828
1.34981
1.35077
1.35117
1.35102
1.35035
1.34917
1.34753
1.34543
1.34293
1.34006
1.33685
1.33335
1.3296
1.32565
1.32154
1.31731
1.313
1.30867
1.30437
1.29978
1.29461
0.0400328
0.0346787
0.0300213
0.0257497
0.0215153
0.0173565
0.0133204
0.00943057
0.00571306
0.00219689
-0.00108852
-0.0041144
-0.00685305
-0.00927834
-0.011366
-0.0130939
-0.0144423
-0.0153936
-0.0159327
-0.0160467
-0.0157252
-0.0149597
-0.0137439
-0.0120735
-0.00994581
-0.00736003
-0.0043168
-0.000818193
0.00313243
0.00753054
0.0123706
0.0176461
0.0233497
0.0294735
0.0360088
0.0429464
0.0502769
0.0579902
0.0660761
0.0745242
0.0833238
0.0924644
0.101935
0.111725
0.121824
0.13222
0.142904
0.153865
0.165094
0.176578
0.18831
0.20028
0.212477
0.224894
0.237521
0.25035
0.263372
0.276579
0.289964
0.30352
0.317238
0.331113
0.345137
0.359304
0.373609
0.388044
0.402605
0.417286
0.432081
0.446986
0.461995
0.477104
0.492308
0.507603
0.522984
0.538447
0.553986
0.5696
0.585281
0.601028
0.616834
0.632697
0.648611
0.664572
0.680575
0.696615
0.712688
0.728788
0.74491
0.761048
0.777196
0.793348
0.809497
0.825637
0.841761
0.857859
0.873925
0.88995
0.905925
0.92184
0.937686
0.953451
0.969125
0.984696
1.00015
1.01548
1.03067
1.0457
1.06057
1.07525
1.08973
1.10399
1.11803
1.13181
1.14533
1.15857
1.1715
1.18411
1.19639
1.2083
1.21984
1.23099
1.24172
1.25202
1.26187
1.27125
1.28014
1.28854
1.29642
1.30377
1.31058
1.31683
1.32251
1.32762
1.33215
1.3361
1.33946
1.34223
1.34442
1.34603
1.34707
1.34755
1.34749
1.3469
1.3458
1.34422
1.34219
1.33973
1.33687
1.33366
1.33012
1.32629
1.32221
1.31791
1.31344
1.3088
1.30407
1.29928
1.29404
1.28799
0.0459667
0.0398303
0.0345793
0.0298518
0.0252335
0.0207589
0.0164719
0.0123888
0.00852788
0.00491161
0.00156306
-0.00149488
-0.00423987
-0.00665063
-0.00870725
-0.0103915
-0.0116869
-0.012579
-0.0130551
-0.0131047
-0.0127192
-0.0118916
-0.010617
-0.00889199
-0.00671497
-0.00408568
-0.00100528
0.00252382
0.00649803
0.0109127
0.0157623
0.0210403
0.0267397
0.0328525
0.0393704
0.0462845
0.0535855
0.0612639
0.0693096
0.0777127
0.0864627
0.0955495
0.104963
0.114691
0.124726
0.135055
0.14567
0.156559
0.167714
0.179123
0.190778
0.202669
0.214788
0.227124
0.23967
0.252418
0.265358
0.278484
0.291787
0.30526
0.318896
0.332689
0.346631
0.360717
0.374939
0.389293
0.403773
0.418372
0.433086
0.44791
0.462838
0.477866
0.492989
0.508202
0.523502
0.538882
0.55434
0.569871
0.58547
0.601133
0.616855
0.632633
0.648461
0.664336
0.680252
0.696204
0.712188
0.728199
0.74423
0.760276
0.776331
0.79239
0.808444
0.824489
0.840515
0.856517
0.872484
0.88841
0.904286
0.920101
0.935846
0.951511
0.967084
0.982555
0.997912
1.01314
1.02823
1.04317
1.05794
1.07252
1.08691
1.10109
1.11503
1.12873
1.14217
1.15533
1.16819
1.18073
1.19294
1.2048
1.21629
1.22738
1.23807
1.24834
1.25816
1.26752
1.2764
1.2848
1.29268
1.30004
1.30686
1.31314
1.31885
1.32401
1.32859
1.33259
1.336
1.33884
1.3411
1.34278
1.34389
1.34445
1.34445
1.34393
1.34289
1.34135
1.33935
1.3369
1.33403
1.33078
1.32716
1.32322
1.31898
1.31447
1.30971
1.30474
1.29958
1.2943
1.28841
1.28151
0.0517055
0.0448097
0.0389738
0.0337879
0.0287765
0.0239716
0.0194151
0.0151169
0.011089
0.00734814
0.00391166
0.000797284
-0.00197754
-0.00439599
-0.00644223
-0.00810165
-0.00936107
-0.0102089
-0.010635
-0.010631
-0.0101903
-0.0093075
-0.00797908
-0.00620286
-0.00397808
-0.00130528
0.00181377
0.00537617
0.00937802
0.0138144
0.0186797
0.0239674
0.0296704
0.0357809
0.0422907
0.049191
0.0564728
0.0641268
0.0721432
0.0805123
0.0892241
0.0982685
0.107635
0.117315
0.127296
0.13757
0.148126
0.158955
0.170046
0.181391
0.192979
0.204802
0.216852
0.229118
0.241593
0.254268
0.267135
0.280188
0.293417
0.306816
0.320378
0.334096
0.347963
0.361974
0.376121
0.3904
0.404804
0.419328
0.433966
0.448714
0.463567
0.478518
0.493565
0.508702
0.523925
0.539228
0.554608
0.570061
0.585581
0.601165
0.616808
0.632506
0.648253
0.664046
0.67988
0.695749
0.711649
0.727575
0.74352
0.75948
0.775449
0.791419
0.807386
0.823341
0.839278
0.855189
0.871066
0.886901
0.902686
0.91841
0.934064
0.949638
0.965121
0.980503
0.99577
1.01091
1.02592
1.04077
1.05545
1.06996
1.08427
1.09837
1.11224
1.12587
1.13925
1.15234
1.16515
1.17764
1.1898
1.20162
1.21307
1.22413
1.2348
1.24505
1.25486
1.26421
1.2731
1.2815
1.2894
1.29678
1.30363
1.30995
1.31571
1.32091
1.32554
1.3296
1.33308
1.33598
1.3383
1.34005
1.34123
1.34184
1.34191
1.34143
1.34043
1.33892
1.33693
1.33447
1.33156
1.32824
1.32452
1.32044
1.31601
1.31126
1.30621
1.30087
1.29529
1.2895
1.28298
1.27526
0.0571667
0.0495365
0.0431279
0.0374859
0.0320775
0.0269333
0.0220943
0.0175651
0.0133523
0.00946745
0.00592323
0.00273259
-9.13851e-05
-0.00253597
-0.00458907
-0.00623953
-0.00747726
-0.0082934
-0.0086804
-0.00863203
-0.00814345
-0.00721116
-0.00583294
-0.00400787
-0.0017362
0.000980649
0.00414022
0.00773907
0.0117728
0.0162363
0.0211236
0.0264281
0.0321426
0.0382593
0.0447701
0.0516663
0.058939
0.066579
0.0745769
0.082923
0.0916075
0.100621
0.109953
0.119594
0.129534
0.139763
0.150272
0.16105
0.17209
0.18338
0.194912
0.206678
0.218668
0.230873
0.243286
0.255898
0.268702
0.281689
0.294853
0.308186
0.321681
0.335332
0.349131
0.363074
0.377153
0.391362
0.405697
0.420152
0.43472
0.449398
0.46418
0.479061
0.494037
0.509102
0.524252
0.539483
0.554791
0.57017
0.585616
0.601125
0.616693
0.632315
0.647986
0.663702
0.679458
0.695249
0.71107
0.726916
0.742782
0.758661
0.774548
0.790437
0.806321
0.822193
0.838047
0.853875
0.86967
0.885422
0.901123
0.916765
0.932337
0.94783
0.963233
0.978535
0.993725
1.00879
1.02372
1.0385
1.05311
1.06755
1.0818
1.09584
1.10965
1.12323
1.13655
1.1496
1.16237
1.17482
1.18695
1.19875
1.21018
1.22123
1.23189
1.24213
1.25195
1.26132
1.27022
1.27864
1.28657
1.29399
1.30089
1.30724
1.31306
1.31831
1.32301
1.32713
1.33067
1.33364
1.33603
1.33784
1.33908
1.33975
1.33986
1.33942
1.33844
1.33694
1.33494
1.33245
1.32949
1.32608
1.32224
1.31799
1.31336
1.30835
1.30299
1.29728
1.29126
1.28498
1.27784
1.26934
0.0622779
0.0539393
0.0469726
0.0408802
0.0350749
0.0295869
0.0244571
0.0196855
0.0152745
0.011231
0.00756351
0.00428089
0.00139224
-0.00109343
-0.0031675
-0.004822
-0.00604977
-0.00684461
-0.00720135
-0.00711594
-0.00658542
-0.00560796
-0.00418282
-0.00231035
8.11291e-06
0.00277023
0.00597276
0.00961161
0.0136819
0.0181781
0.0230938
0.0284224
0.0341564
0.0402879
0.0468089
0.0537106
0.0609842
0.0686207
0.0766106
0.0849445
0.0936129
0.102606
0.111914
0.121528
0.131438
0.141633
0.152106
0.162846
0.173843
0.18509
0.196577
0.208294
0.220235
0.232389
0.244749
0.257308
0.270056
0.282987
0.296094
0.309369
0.322805
0.336396
0.350135
0.364016
0.378033
0.39218
0.406452
0.420843
0.435348
0.449961
0.464678
0.479493
0.494403
0.509401
0.524484
0.539648
0.554887
0.570197
0.585574
0.601013
0.61651
0.632061
0.64766
0.663303
0.678986
0.694704
0.710451
0.726222
0.742013
0.757816
0.773628
0.789441
0.805248
0.821045
0.836823
0.852575
0.868293
0.88397
0.899596
0.915164
0.930663
0.946084
0.961417
0.97665
0.991772
1.00677
1.02164
1.03636
1.05092
1.0653
1.07949
1.09348
1.10726
1.1208
1.13408
1.1471
1.15984
1.17228
1.18439
1.19618
1.2076
1.21866
1.22933
1.23959
1.24942
1.25882
1.26775
1.27621
1.28419
1.29165
1.2986
1.30502
1.31089
1.31621
1.32097
1.32516
1.32878
1.33181
1.33427
1.33614
1.33744
1.33816
1.33831
1.3379
1.33694
1.33543
1.33341
1.33087
1.32783
1.32432
1.32034
1.31592
1.31106
1.30579
1.30011
1.29402
1.28757
1.28081
1.27307
1.26382
0.0669756
0.0579546
0.0504456
0.0439107
0.0377117
0.0318789
0.0264536
0.0214325
0.0168137
0.0126008
0.00879841
0.00541169
0.00244625
-9.22797e-05
-0.00219846
-0.00386729
-0.00509439
-0.00587607
-0.00620948
-0.00609265
-0.00552449
-0.00450485
-0.00303447
-0.00111501
0.00125106
0.00406041
0.00730898
0.010992
0.0151039
0.0196387
0.0245897
0.0299498
0.0357114
0.0418666
0.0484069
0.0553239
0.0626085
0.0702518
0.0782444
0.086577
0.0952402
0.104224
0.11352
0.123118
0.133008
0.143181
0.153628
0.16434
0.175307
0.18652
0.197971
0.209651
0.221552
0.233665
0.245982
0.258495
0.271198
0.284081
0.297139
0.310363
0.323748
0.337287
0.350972
0.364799
0.378762
0.392853
0.407068
0.421402
0.435848
0.450402
0.465059
0.479815
0.494663
0.5096
0.524621
0.539721
0.554896
0.570142
0.585454
0.600828
0.616259
0.631742
0.647274
0.66285
0.678464
0.694113
0.709791
0.725493
0.741213
0.756947
0.772688
0.78843
0.804168
0.819895
0.835603
0.851285
0.866935
0.882544
0.898104
0.913605
0.92904
0.944398
0.959669
0.974843
0.989908
1.00485
1.01967
1.03434
1.04885
1.06319
1.07735
1.0913
1.10505
1.11856
1.13183
1.14483
1.15756
1.16999
1.18211
1.1939
1.20534
1.21641
1.2271
1.23739
1.24726
1.2567
1.26568
1.2742
1.28223
1.28976
1.29677
1.30326
1.30921
1.3146
1.31944
1.3237
1.32739
1.3305
1.33302
1.33496
1.33631
1.33708
1.33727
1.33688
1.33592
1.33441
1.33235
1.32975
1.32663
1.323
1.31887
1.31426
1.30917
1.30362
1.29762
1.29115
1.28428
1.27704
1.26873
1.25875
0.0712034
0.0615255
0.0534906
0.0465227
0.0399352
0.0337592
0.028037
0.0227621
0.0179297
0.0135398
0.00959408
0.00609437
0.0030431
0.000442857
-0.00170385
-0.0033948
-0.00462818
-0.00540271
-0.00571777
-0.00557338
-0.00497031
-0.00391007
-0.0023949
-0.000427754
0.0019877
0.00484712
0.00814554
0.0118774
0.0160366
0.0206164
0.0256098
0.0310094
0.0368071
0.0429948
0.0495641
0.0565061
0.0638119
0.0714725
0.0794785
0.0878207
0.0964897
0.105476
0.11477
0.124363
0.134245
0.144407
0.154839
0.165534
0.17648
0.187671
0.199097
0.210749
0.22262
0.234701
0.246984
0.259462
0.272126
0.284971
0.297987
0.31117
0.324511
0.338005
0.351645
0.365424
0.379338
0.39338
0.407545
0.421827
0.436221
0.450722
0.465325
0.480025
0.494817
0.509698
0.524661
0.539703
0.554819
0.570005
0.585257
0.60057
0.615939
0.63136
0.646829
0.662342
0.677893
0.693477
0.70909
0.724727
0.740383
0.756052
0.771728
0.787406
0.803079
0.818742
0.834386
0.850006
0.865594
0.881142
0.896642
0.912086
0.927464
0.942768
0.957987
0.973111
0.988129
1.00303
1.0178
1.03244
1.04691
1.06123
1.07536
1.08929
1.10302
1.11652
1.12978
1.14278
1.15551
1.16795
1.18009
1.1919
1.20337
1.21448
1.22521
1.23554
1.24547
1.25496
1.264
1.27259
1.28069
1.28829
1.29539
1.30196
1.30799
1.31347
1.31839
1.32274
1.32651
1.3297
1.33229
1.33429
1.3357
1.33652
1.33674
1.33637
1.33541
1.33388
1.33178
1.32912
1.32591
1.32215
1.31786
1.31305
1.30773
1.3019
1.29557
1.28873
1.28144
1.27374
1.26487
1.2542
0.0749108
0.0646003
0.056056
0.0486656
0.0416964
0.0351808
0.0291625
0.0236325
0.0185831
0.0140117
0.00991711
0.00629834
0.00315496
0.000486788
-0.00170637
-0.00342484
-0.00466924
-0.00544059
-0.00574036
-0.00557055
-0.00493373
-0.00383304
-0.0022722
-0.000255518
0.00221215
0.0051254
0.00847833
0.0122646
0.0164772
0.0211091
0.0261527
0.0315999
0.0374425
0.0436721
0.0502799
0.057257
0.0645945
0.0722829
0.0803133
0.088676
0.0973619
0.106362
0.115666
0.125265
0.135149
0.145311
0.15574
0.166427
0.177364
0.188543
0.199953
0.211588
0.223439
0.235497
0.247756
0.260207
0.272843
0.285656
0.298641
0.311789
0.325095
0.338551
0.352152
0.365891
0.379763
0.393763
0.407883
0.42212
0.436467
0.450921
0.465475
0.480125
0.494867
0.509695
0.524606
0.539595
0.554657
0.569788
0.584983
0.600239
0.615551
0.630915
0.646326
0.661779
0.677271
0.692796
0.708349
0.723927
0.739522
0.755131
0.770748
0.786366
0.801981
0.817585
0.833172
0.848736
0.864269
0.879763
0.895211
0.910604
0.925934
0.941192
0.956367
0.971451
0.986431
1.0013
1.01604
1.03065
1.0451
1.05939
1.07351
1.08744
1.10116
1.11466
1.12793
1.14095
1.1537
1.16616
1.17833
1.19017
1.20169
1.21284
1.22363
1.23403
1.24402
1.25358
1.26271
1.27137
1.27956
1.28725
1.29444
1.3011
1.30723
1.31281
1.31782
1.32227
1.32613
1.3294
1.33207
1.33415
1.33562
1.33648
1.33673
1.33638
1.33543
1.33388
1.33173
1.329
1.32568
1.3218
1.31735
1.31234
1.30678
1.30067
1.29401
1.28681
1.2791
1.27095
1.26154
1.25021
0.0780524
0.0671322
0.0580948
0.0502927
0.0429497
0.0360997
0.0297879
0.0240034
0.018736
0.013981
0.00973453
0.00599314
0.00275384
1.39293e-05
-0.00222926
-0.00397845
-0.00523653
-0.00600667
-0.00629239
-0.00609758
-0.00542657
-0.00428411
-0.00267541
-0.00060611
0.00191771
0.00488955
0.00830254
0.0121494
0.0164226
0.0211142
0.0262161
0.0317197
0.0376165
0.0438977
0.0505541
0.0575768
0.0649564
0.0726837
0.0807493
0.0891438
0.0978578
0.106882
0.116207
0.125823
0.135722
0.145894
0.15633
0.167022
0.17796
0.189137
0.200542
0.212169
0.22401
0.236055
0.248299
0.260732
0.273348
0.28614
0.2991
0.312222
0.325499
0.338926
0.352495
0.366201
0.380038
0.394001
0.408084
0.422281
0.436588
0.450999
0.46551
0.480116
0.494812
0.509594
0.524457
0.539397
0.554409
0.569489
0.584634
0.599838
0.615097
0.630407
0.645764
0.661163
0.6766
0.69207
0.707568
0.72309
0.73863
0.754184
0.769746
0.785311
0.800872
0.816424
0.83196
0.847473
0.862957
0.878405
0.893808
0.909158
0.924447
0.939667
0.954807
0.969859
0.984811
0.999653
1.01437
1.02896
1.04341
1.05769
1.07181
1.08574
1.09947
1.11298
1.12627
1.13932
1.1521
1.1646
1.17681
1.18871
1.20028
1.21151
1.22236
1.23284
1.24291
1.25256
1.26178
1.27054
1.27883
1.28663
1.29392
1.3007
1.30693
1.31262
1.31774
1.32229
1.32625
1.32961
1.33237
1.33452
1.33606
1.33697
1.33726
1.33693
1.33598
1.3344
1.33221
1.32941
1.32599
1.32198
1.31736
1.31215
1.30635
1.29996
1.29299
1.28542
1.27731
1.26872
1.25879
1.24682
0.0805867
0.0690784
0.0595632
0.0513605
0.0436522
0.036474
0.0298729
0.0238362
0.0183519
0.0134131
0.00901384
0.00514847
0.00181168
-0.00100159
-0.00329626
-0.00507727
-0.00634967
-0.0071187
-0.0073898
-0.00716872
-0.00646149
-0.00527447
-0.00361433
-0.00148808
0.00109699
0.00413326
0.00761283
0.0115276
0.0158691
0.0206288
0.0257978
0.0313673
0.0373281
0.0436709
0.0503864
0.0574654
0.0648981
0.0726753
0.0807874
0.089225
0.0979785
0.107039
0.116396
0.126041
0.135965
0.146159
0.156614
0.16732
0.17827
0.189455
0.200866
0.212495
0.224335
0.236378
0.248615
0.261039
0.273644
0.286422
0.299366
0.31247
0.325727
0.339131
0.352676
0.366356
0.380165
0.394097
0.408148
0.422312
0.436584
0.450959
0.465432
0.479999
0.494655
0.509395
0.524215
0.53911
0.554078
0.569112
0.584209
0.599365
0.614576
0.629837
0.645144
0.660493
0.67588
0.691299
0.706747
0.722218
0.737708
0.753212
0.768724
0.78424
0.799753
0.815258
0.830748
0.846217
0.861659
0.877066
0.89243
0.907745
0.923001
0.93819
0.953303
0.968331
0.983264
0.998091
1.0128
1.02738
1.04182
1.05611
1.07024
1.08418
1.09793
1.11148
1.1248
1.13788
1.15071
1.16327
1.17554
1.18751
1.19915
1.21045
1.2214
1.23196
1.24214
1.25189
1.26122
1.27009
1.2785
1.28642
1.29383
1.30073
1.30709
1.31289
1.31813
1.3228
1.32687
1.33034
1.33319
1.33542
1.33703
1.338
1.33834
1.33803
1.33708
1.33549
1.33325
1.33038
1.32686
1.32271
1.31793
1.31252
1.30648
1.29982
1.29253
1.28461
1.27611
1.26709
1.25666
1.24407
0.0824756
0.0703989
0.0604207
0.0518283
0.0437635
0.036264
0.0293787
0.0230936
0.0173949
0.0122739
0.00772297
0.00373424
0.000300343
-0.00258587
-0.00493146
-0.00674345
-0.00802892
-0.00879506
-0.00904922
-0.00879891
-0.00805185
-0.00681598
-0.00509943
-0.00291056
-0.000257926
0.00284973
0.00640347
0.0103942
0.0148127
0.0196497
0.0248956
0.0305409
0.036576
0.0429912
0.0497768
0.0569231
0.0644204
0.072259