/*--------------------------------*- C++ -*----------------------------------*\
  =========                 |
  \\      /  F ield         | OpenFOAM: The Open Source CFD Toolbox
   \\    /   O peration     | Website:  https://openfoam.org
    \\  /    A nd           | Version:  7
     \\/     M anipulation  |
\*---------------------------------------------------------------------------*/
FoamFile
{
    version     2.0;
    format      ascii;
    class       surfaceScalarField;
    location    "0.3";
    object      phi;
}
// * * * * * * * * * * * * * * * * * * * * * * * * * * * * * * * * * * * * * //

dimensions      [0 3 -1 0 0 0 0];

internalField   nonuniform List<scalar> 
25360
(
1.14293e-10
-1.14332e-10
3.59542e-10
-2.45248e-10
6.04149e-10
-2.44607e-10
7.64998e-10
-1.60855e-10
7.97962e-10
-3.29712e-11
6.81238e-10
1.16719e-10
4.06202e-10
2.75037e-10
-2.78171e-11
4.34023e-10
-6.16689e-10
5.88873e-10
-1.35339e-09
7.367e-10
-2.22916e-09
8.75766e-10
-3.23423e-09
1.00506e-09
-4.35828e-09
1.12405e-09
-5.5908e-09
1.23252e-09
-6.92127e-09
1.33047e-09
-8.33933e-09
1.41805e-09
-9.83486e-09
1.49553e-09
-1.13981e-08
1.56323e-09
-1.30196e-08
1.62154e-09
-1.46905e-08
1.6709e-09
-1.64023e-08
1.71174e-09
-1.81468e-08
1.74453e-09
-1.99165e-08
1.76975e-09
-2.17044e-08
1.78787e-09
-2.35038e-08
1.79937e-09
-2.53085e-08
1.80471e-09
-2.71129e-08
1.80435e-09
-2.89116e-08
1.79876e-09
-3.07e-08
1.78835e-09
-3.24735e-08
1.77356e-09
-3.42283e-08
1.75479e-09
-3.59607e-08
1.73243e-09
-3.76676e-08
1.70687e-09
-3.9346e-08
1.67845e-09
-4.09936e-08
1.64751e-09
-4.26079e-08
1.61437e-09
-4.41873e-08
1.57934e-09
-4.573e-08
1.5427e-09
-4.72347e-08
1.50471e-09
-4.87003e-08
1.46563e-09
-5.0126e-08
1.42567e-09
-5.1511e-08
1.38505e-09
-5.2855e-08
1.34397e-09
-5.41576e-08
1.30261e-09
-5.54187e-08
1.26112e-09
-5.66384e-08
1.21966e-09
-5.78168e-08
1.17836e-09
-5.89541e-08
1.13734e-09
-6.00508e-08
1.0967e-09
-6.11074e-08
1.05654e-09
-6.21243e-08
1.01694e-09
-6.31023e-08
9.7797e-10
-6.40419e-08
9.39681e-10
-6.49441e-08
9.02126e-10
-6.58094e-08
8.65344e-10
-6.66388e-08
8.29363e-10
-6.7433e-08
7.94203e-10
-6.81929e-08
7.59877e-10
-6.89193e-08
7.2639e-10
-6.9613e-08
6.93742e-10
-7.02749e-08
6.61922e-10
-7.09058e-08
6.30916e-10
-7.15065e-08
6.00702e-10
-7.20778e-08
5.71255e-10
-7.26203e-08
5.42545e-10
-7.31349e-08
5.14536e-10
-7.36221e-08
4.87188e-10
-7.40825e-08
4.60459e-10
-7.45168e-08
4.34301e-10
-7.49255e-08
4.08663e-10
-7.5309e-08
3.83491e-10
-7.56677e-08
3.58727e-10
-7.6002e-08
3.34312e-10
-7.63122e-08
3.10188e-10
-7.65985e-08
2.86289e-10
-7.6861e-08
2.62551e-10
-7.70999e-08
2.38904e-10
-7.73152e-08
2.15276e-10
-7.75068e-08
1.91598e-10
-7.76746e-08
1.67801e-10
-7.78184e-08
1.43814e-10
-7.7938e-08
1.19562e-10
-7.80329e-08
9.49681e-11
-7.81029e-08
6.99576e-11
-7.81474e-08
4.44563e-11
-7.81657e-08
1.83917e-11
-7.81574e-08
-8.30863e-12
-7.81217e-08
-3.57181e-11
-7.80578e-08
-6.39102e-11
-7.79648e-08
-9.29567e-11
-7.78419e-08
-1.22926e-10
-7.7688e-08
-1.53884e-10
-7.75021e-08
-1.85893e-10
-7.72831e-08
-2.19016e-10
-7.70298e-08
-2.53309e-10
-7.6741e-08
-2.88828e-10
-7.64154e-08
-3.25622e-10
-7.60516e-08
-3.63733e-10
-7.56484e-08
-4.032e-10
-7.52044e-08
-4.44053e-10
-7.47181e-08
-4.86318e-10
-7.41881e-08
-5.30011e-10
-7.36129e-08
-5.7514e-10
-7.29912e-08
-6.21704e-10
-7.23215e-08
-6.69692e-10
-7.16024e-08
-7.1908e-10
-7.08326e-08
-7.69835e-10
-7.00107e-08
-8.21907e-10
-6.91355e-08
-8.75237e-10
-6.82057e-08
-9.2975e-10
-6.72204e-08
-9.85354e-10
-6.61784e-08
-1.04194e-09
-6.5079e-08
-1.0994e-09
-6.39215e-08
-1.15757e-09
-6.27052e-08
-1.2163e-09
-6.14298e-08
-1.2754e-09
-6.00951e-08
-1.33469e-09
-5.87011e-08
-1.39394e-09
-5.72482e-08
-1.45291e-09
-5.57369e-08
-1.51134e-09
-5.4168e-08
-1.56894e-09
-5.25425e-08
-1.62541e-09
-5.08621e-08
-1.68042e-09
-4.91285e-08
-1.73364e-09
-4.73438e-08
-1.78468e-09
-4.55106e-08
-1.83317e-09
-4.36319e-08
-1.87869e-09
-4.17111e-08
-1.92082e-09
-3.9752e-08
-1.95911e-09
-3.77589e-08
-1.99311e-09
-3.57366e-08
-2.02234e-09
-3.36902e-08
-2.04632e-09
-3.16257e-08
-2.06455e-09
-2.95492e-08
-2.07651e-09
-2.74675e-08
-2.08171e-09
-2.53878e-08
-2.07963e-09
-2.33181e-08
-2.06974e-09
-2.12665e-08
-2.05155e-09
-1.9242e-08
-2.02453e-09
-1.72538e-08
-1.9882e-09
-1.53117e-08
-1.94208e-09
-1.3426e-08
-1.8857e-09
-1.16074e-08
-1.81863e-09
-9.86692e-09
-1.74049e-09
-8.216e-09
-1.65092e-09
-6.66637e-09
-1.54964e-09
-5.22993e-09
-1.43644e-09
-3.91867e-09
-1.31126e-09
-2.74451e-09
-1.17416e-09
-1.71906e-09
-1.02545e-09
-8.53286e-10
-8.65771e-10
-1.57025e-10
-6.96262e-10
3.61805e-10
-5.18835e-10
6.98456e-10
-3.36653e-10
8.53425e-10
-1.54962e-10
8.35951e-10
1.749e-11
6.69849e-10
1.66113e-10
4.03857e-10
2.65981e-10
1.30766e-10
2.73059e-10
1.30741e-10
2.45425e-10
-3.5976e-10
6.33961e-10
-6.33789e-10
9.49961e-10
-5.60605e-10
1.04671e-09
-2.57598e-10
8.28359e-10
1.85375e-10
2.38429e-10
7.0664e-10
-7.51449e-10
1.26491e-09
-2.15029e-09
1.83286e-09
-3.95398e-09
2.39256e-09
-6.14954e-09
2.93225e-09
-8.71809e-09
3.44431e-09
-1.16369e-08
3.9239e-09
-1.4881e-08
4.36811e-09
-1.84238e-08
4.77535e-09
-2.22383e-08
5.145e-09
-2.62974e-08
5.47712e-09
-3.05742e-08
5.77228e-09
-3.50423e-08
6.03139e-09
-3.96764e-08
6.25563e-09
-4.44519e-08
6.44639e-09
-4.93454e-08
6.60518e-09
-5.43344e-08
6.73359e-09
-5.9398e-08
6.83331e-09
-6.45162e-08
6.90603e-09
-6.96703e-08
6.95347e-09
-7.48429e-08
6.97734e-09
-8.00179e-08
6.97935e-09
-8.51803e-08
6.96115e-09
-9.03163e-08
6.92437e-09
-9.54134e-08
6.87061e-09
-1.0046e-07
6.80139e-09
-1.05446e-07
6.7182e-09
-1.10361e-07
6.62246e-09
-1.15198e-07
6.51551e-09
-1.1995e-07
6.39865e-09
-1.24608e-07
6.2731e-09
-1.29169e-07
6.14002e-09
-1.33627e-07
6.0005e-09
-1.37978e-07
5.85556e-09
-1.42218e-07
5.70614e-09
-1.46346e-07
5.55315e-09
-1.50358e-07
5.39739e-09
-1.54254e-07
5.23963e-09
-1.58032e-07
5.08057e-09
-1.61691e-07
4.92083e-09
-1.65233e-07
4.76101e-09
-1.68656e-07
4.60161e-09
-1.71962e-07
4.44311e-09
-1.75151e-07
4.28593e-09
-1.78225e-07
4.13043e-09
-1.81185e-07
3.97693e-09
-1.84032e-07
3.82571e-09
-1.8677e-07
3.677e-09
-1.89399e-07
3.53099e-09
-1.91921e-07
3.38785e-09
-1.94339e-07
3.24769e-09
-1.96656e-07
3.1106e-09
-1.98873e-07
2.97663e-09
-2.00992e-07
2.84582e-09
-2.03016e-07
2.71815e-09
-2.04948e-07
2.59361e-09
-2.06789e-07
2.47213e-09
-2.08542e-07
2.35365e-09
-2.10209e-07
2.23807e-09
-2.11792e-07
2.12528e-09
-2.13292e-07
2.01514e-09
-2.14713e-07
1.90751e-09
-2.16054e-07
1.80222e-09
-2.17319e-07
1.69909e-09
-2.18509e-07
1.59794e-09
-2.19624e-07
1.49854e-09
-2.20666e-07
1.4007e-09
-2.21635e-07
1.30418e-09
-2.22534e-07
1.20875e-09
-2.23362e-07
1.11416e-09
-2.2412e-07
1.02017e-09
-2.24807e-07
9.26514e-10
-2.25425e-07
8.32926e-10
-2.25972e-07
7.39135e-10
-2.26449e-07
6.44867e-10
-2.26855e-07
5.49846e-10
-2.2719e-07
4.53794e-10
-2.27451e-07
3.56426e-10
-2.27639e-07
2.57457e-10
-2.27751e-07
1.56603e-10
-2.27786e-07
5.35789e-11
-2.27742e-07
-5.18929e-11
-2.27618e-07
-1.60089e-10
-2.27411e-07
-2.71283e-10
-2.27118e-07
-3.85744e-10
-2.26737e-07
-5.03732e-10
-2.26265e-07
-6.25498e-10
-2.257e-07
-7.51283e-10
-2.25038e-07
-8.81315e-10
-2.24275e-07
-1.01581e-09
-2.23409e-07
-1.15496e-09
-2.22436e-07
-1.29896e-09
-2.21351e-07
-1.44796e-09
-2.20153e-07
-1.6021e-09
-2.18835e-07
-1.76149e-09
-2.17395e-07
-1.92622e-09
-2.15829e-07
-2.09634e-09
-2.14132e-07
-2.27187e-09
-2.12301e-07
-2.45279e-09
-2.10332e-07
-2.63905e-09
-2.0822e-07
-2.83056e-09
-2.05963e-07
-3.02716e-09
-2.03556e-07
-3.22866e-09
-2.00997e-07
-3.43482e-09
-1.98281e-07
-3.64533e-09
-1.95407e-07
-3.85984e-09
-1.92371e-07
-4.07793e-09
-1.89171e-07
-4.2991e-09
-1.85806e-07
-4.5228e-09
-1.82274e-07
-4.74841e-09
-1.78574e-07
-4.97523e-09
-1.74706e-07
-5.20249e-09
-1.70671e-07
-5.42933e-09
-1.66469e-07
-5.65482e-09
-1.62102e-07
-5.87797e-09
-1.57573e-07
-6.09768e-09
-1.52886e-07
-6.31277e-09
-1.48044e-07
-6.52201e-09
-1.43054e-07
-6.72406e-09
-1.37921e-07
-6.91753e-09
-1.32653e-07
-7.10093e-09
-1.27259e-07
-7.27272e-09
-1.21749e-07
-7.43127e-09
-1.16133e-07
-7.57491e-09
-1.10424e-07
-7.7019e-09
-1.04636e-07
-7.81046e-09
-9.87836e-08
-7.89876e-09
-9.28832e-08
-7.96494e-09
-8.69526e-08
-8.0071e-09
-8.1011e-08
-8.02335e-09
-7.50789e-08
-8.01178e-09
-6.91781e-08
-7.97049e-09
-6.33321e-08
-7.89761e-09
-5.75653e-08
-7.79131e-09
-5.19037e-08
-7.64982e-09
-4.63743e-08
-7.47145e-09
-4.10054e-08
-7.25462e-09
-3.58261e-08
-6.99789e-09
-3.08666e-08
-6.70001e-09
-2.61575e-08
-6.35996e-09
-2.17301e-08
-5.97703e-09
-1.76157e-08
-5.55091e-09
-1.38451e-08
-5.08186e-09
-1.04484e-08
-4.57083e-09
-7.45404e-09
-4.01982e-09
-4.88756e-09
-3.43224e-09
-2.77024e-09
-2.81357e-09
-1.11678e-09
-2.17229e-09
6.79005e-11
-1.52135e-09
7.93435e-10
-8.80513e-10
1.09089e-09
-2.79966e-10
1.02265e-09
2.34371e-10
6.95307e-10
5.93373e-10
2.73139e-10
6.95273e-10
4.03854e-10
2.45809e-10
-6.0557e-10
5.63473e-10
-9.51464e-10
6.97826e-10
-6.94963e-10
4.74879e-10
-3.46503e-11
-2.2506e-10
8.85318e-10
-1.47788e-09
1.95945e-09
-3.32545e-09
3.11247e-09
-5.78431e-09
4.29172e-09
-8.85249e-09
5.46073e-09
-1.25146e-08
6.5944e-09
-1.6746e-08
7.67566e-09
-2.15152e-08
8.69315e-09
-2.67867e-08
9.63958e-09
-3.2522e-08
1.05106e-08
-3.8681e-08
1.13041e-08
-4.52233e-08
1.20194e-08
-5.21081e-08
1.26571e-08
-5.92953e-08
1.32186e-08
-6.67459e-08
1.37062e-08
-7.44219e-08
1.41224e-08
-8.22868e-08
1.44701e-08
-9.03058e-08
1.47526e-08
-9.84457e-08
1.49732e-08
-1.06675e-07
1.51356e-08
-1.14965e-07
1.52431e-08
-1.23287e-07
1.52995e-08
-1.31616e-07
1.53083e-08
-1.39928e-07
1.5273e-08
-1.48201e-07
1.51971e-08
-1.56414e-07
1.5084e-08
-1.6455e-07
1.4937e-08
-1.72591e-07
1.47592e-08
-1.80522e-07
1.45538e-08
-1.8833e-07
1.43236e-08
-1.96003e-07
1.40714e-08
-2.0353e-07
1.38e-08
-2.10901e-07
1.35117e-08
-2.1811e-07
1.32091e-08
-2.25149e-07
1.28942e-08
-2.32012e-07
1.25692e-08
-2.38695e-07
1.22361e-08
-2.45194e-07
1.18966e-08
-2.51507e-07
1.15523e-08
-2.57631e-07
1.1205e-08
-2.63566e-07
1.08558e-08
-2.69311e-07
1.05062e-08
-2.74867e-07
1.01572e-08
-2.80233e-07
9.80988e-09
-2.85413e-07
9.4652e-09
-2.90406e-07
9.12397e-09
-2.95216e-07
8.78688e-09
-2.99845e-07
8.45456e-09
-3.04296e-07
8.12753e-09
-3.08571e-07
7.80623e-09
-3.12674e-07
7.491e-09
-3.16608e-07
7.18214e-09
-3.20378e-07
6.87983e-09
-3.23985e-07
6.58421e-09
-3.27435e-07
6.29534e-09
-3.3073e-07
6.01324e-09
-3.33874e-07
5.73785e-09
-3.36871e-07
5.46907e-09
-3.39724e-07
5.20674e-09
-3.42437e-07
4.95067e-09
-3.45012e-07
4.7006e-09
-3.47453e-07
4.45627e-09
-3.49763e-07
4.21735e-09
-3.51944e-07
3.98348e-09
-3.53999e-07
3.75428e-09
-3.55931e-07
3.52934e-09
-3.5774e-07
3.3082e-09
-3.5943e-07
3.09041e-09
-3.61001e-07
2.87548e-09
-3.62456e-07
2.66288e-09
-3.63793e-07
2.45209e-09
-3.65016e-07
2.24257e-09
-3.66123e-07
2.03376e-09
-3.67115e-07
1.82507e-09
-3.67992e-07
1.61593e-09
-3.68753e-07
1.40573e-09
-3.69397e-07
1.19387e-09
-3.69923e-07
9.79735e-10
-3.70329e-07
7.62723e-10
-3.70614e-07
5.42214e-10
-3.70775e-07
3.17591e-10
-3.7081e-07
8.82403e-11
-3.70715e-07
-1.46447e-10
-3.70488e-07
-3.87069e-10
-3.70125e-07
-6.34216e-10
-3.69622e-07
-8.88463e-10
-3.68976e-07
-1.15037e-09
-3.68181e-07
-1.42048e-09
-3.67233e-07
-1.69932e-09
-3.66127e-07
-1.98736e-09
-3.64857e-07
-2.28507e-09
-3.63419e-07
-2.59287e-09
-3.61807e-07
-2.91114e-09
-3.60015e-07
-3.24023e-09
-3.58037e-07
-3.58041e-09
-3.55866e-07
-3.93192e-09
-3.53498e-07
-4.29493e-09
-3.50924e-07
-4.66954e-09
-3.4814e-07
-5.05578e-09
-3.4514e-07
-5.4536e-09
-3.41916e-07
-5.86285e-09
-3.38463e-07
-6.28331e-09
-3.34776e-07
-6.71465e-09
-3.30848e-07
-7.15642e-09
-3.26675e-07
-7.60808e-09
-3.22251e-07
-8.06894e-09
-3.17573e-07
-8.53821e-09
-3.12636e-07
-9.01495e-09
-3.07437e-07
-9.49809e-09
-3.01973e-07
-9.98639e-09
-2.96243e-07
-1.04785e-08
-2.90245e-07
-1.09728e-08
-2.8398e-07
-1.14678e-08
-2.77448e-07
-1.19614e-08
-2.70651e-07
-1.24517e-08
-2.63593e-07
-1.29364e-08
-2.56277e-07
-1.34133e-08
-2.4871e-07
-1.38797e-08
-2.40899e-07
-1.4333e-08
-2.32853e-07
-1.47702e-08
-2.24582e-07
-1.51883e-08
-2.16099e-07
-1.55841e-08
-2.07417e-07
-1.59543e-08
-1.98553e-07
-1.62954e-08
-1.89524e-07
-1.66038e-08
-1.80351e-07
-1.68756e-08
-1.71054e-07
-1.71071e-08
-1.61658e-07
-1.72944e-08
-1.5219e-07
-1.74335e-08
-1.42676e-07
-1.75204e-08
-1.33149e-07
-1.75509e-08
-1.2364e-07
-1.75212e-08
-1.14183e-07
-1.74271e-08
-1.04816e-07
-1.72648e-08
-9.55766e-08
-1.70304e-08
-8.6506e-08
-1.67204e-08
-7.76461e-08
-1.63313e-08
-6.90408e-08
-1.58599e-08
-6.07352e-08
-1.53035e-08
-5.27754e-08
-1.46598e-08
-4.52085e-08
-1.39269e-08
-3.80815e-08
-1.3104e-08
-3.14414e-08
-1.2191e-08
-2.5334e-08
-1.11892e-08
-1.98031e-08
-1.01017e-08
-1.48891e-08
-8.93379e-09
-1.06275e-08
-7.6939e-09
-7.0461e-09
-6.39495e-09
-4.16239e-09
-5.05598e-09
-1.97891e-09
-3.70482e-09
-4.77622e-10
-2.38181e-09
3.87678e-10
-1.14529e-09
7.01143e-10
-7.91107e-11
5.96054e-10
6.98476e-10
2.66912e-10
1.02446e-09
6.70759e-10
1.63774e-10
-7.69341e-10
2.64784e-10
-1.05248e-09
4.43017e-11
-4.74491e-10
-6.78038e-10
6.87685e-10
-2.02899e-09
2.23627e-09
-4.09179e-09
4.02225e-09
-6.91453e-09
5.93521e-09
-1.05177e-08
7.89492e-09
-1.49007e-08
9.84367e-09
-2.00465e-08
1.17403e-08
-2.59266e-08
1.35557e-08
-3.25035e-08
1.527e-08
-3.97337e-08
1.68698e-08
-4.75696e-08
1.83465e-08
-5.59611e-08
1.96956e-08
-6.48567e-08
2.0915e-08
-7.42045e-08
2.20049e-08
-8.39529e-08
2.29671e-08
-9.40513e-08
2.38046e-08
-1.0445e-07
2.45213e-08
-1.15102e-07
2.51219e-08
-1.25961e-07
2.56115e-08
-1.36983e-07
2.59955e-08
-1.48127e-07
2.62797e-08
-1.59354e-07
2.647e-08
-1.70627e-07
2.65723e-08
-1.81911e-07
2.65927e-08
-1.93175e-07
2.6537e-08
-2.04389e-07
2.64112e-08
-2.15526e-07
2.62209e-08
-2.26561e-07
2.59718e-08
-2.37471e-07
2.56693e-08
-2.48236e-07
2.53186e-08
-2.58837e-07
2.49247e-08
-2.69258e-07
2.44924e-08
-2.79484e-07
2.40263e-08
-2.89503e-07
2.35307e-08
-2.99304e-07
2.30096e-08
-3.08877e-07
2.2467e-08
-3.18214e-07
2.19064e-08
-3.27309e-07
2.13312e-08
-3.36157e-07
2.07445e-08
-3.44754e-07
2.01493e-08
-3.53097e-07
1.95481e-08
-3.61185e-07
1.89434e-08
-3.69016e-07
1.83374e-08
-3.76591e-07
1.77322e-08
-3.83911e-07
1.71295e-08
-3.90977e-07
1.65311e-08
-3.97791e-07
1.59382e-08
-4.04356e-07
1.53521e-08
-4.10675e-07
1.4774e-08
-4.16753e-07
1.42048e-08
-4.22592e-07
1.36453e-08
-4.28197e-07
1.3096e-08
-4.33572e-07
1.25574e-08
-4.38722e-07
1.203e-08
-4.43652e-07
1.1514e-08
-4.48366e-07
1.10095e-08
-4.52869e-07
1.05165e-08
-4.57167e-07
1.00349e-08
-4.61262e-07
9.5647e-09
-4.65161e-07
9.10549e-09
-4.68867e-07
8.65698e-09
-4.72385e-07
8.21875e-09
-4.75719e-07
7.79034e-09
-4.78873e-07
7.37119e-09
-4.81851e-07
6.9607e-09
-4.84654e-07
6.5582e-09
-4.87288e-07
6.16299e-09
-4.89754e-07
5.7743e-09
-4.92055e-07
5.39134e-09
-4.94193e-07
5.01326e-09
-4.96169e-07
4.63918e-09
-4.97985e-07
4.26819e-09
-4.99642e-07
3.89935e-09
-5.0114e-07
3.53168e-09
-5.02479e-07
3.16421e-09
-5.03659e-07
2.79591e-09
-5.04679e-07
2.42577e-09
-5.05538e-07
2.05275e-09
-5.06234e-07
1.67578e-09
-5.06765e-07
1.29383e-09
-5.07129e-07
9.0582e-10
-5.07322e-07
5.10708e-10
-5.07341e-07
1.07436e-10
-5.07182e-07
-3.05041e-10
-5.06842e-07
-7.27751e-10
-5.06314e-07
-1.1617e-09
-5.05595e-07
-1.60788e-09
-5.04678e-07
-2.06725e-09
-5.03558e-07
-2.54073e-09
-5.02228e-07
-3.02919e-09
-5.00682e-07
-3.53348e-09
-4.98912e-07
-4.05437e-09
-4.96913e-07
-4.59257e-09
-4.94675e-07
-5.14872e-09
-4.92192e-07
-5.7234e-09
-4.89455e-07
-6.31708e-09
-4.86457e-07
-6.93014e-09
-4.83189e-07
-7.56284e-09
-4.79643e-07
-8.21535e-09
-4.75812e-07
-8.88769e-09
-4.71685e-07
-9.57975e-09
-4.67257e-07
-1.02913e-08
-4.62518e-07
-1.10218e-08
-4.57462e-07
-1.17708e-08
-4.52081e-07
-1.25374e-08
-4.46369e-07
-1.33207e-08
-4.40318e-07
-1.41195e-08
-4.33924e-07
-1.49324e-08
-4.27181e-07
-1.57577e-08
-4.20086e-07
-1.65935e-08
-4.12634e-07
-1.74378e-08
-4.04825e-07
-1.82881e-08
-3.96656e-07
-1.91418e-08
-3.88128e-07
-1.99959e-08
-3.79242e-07
-2.08472e-08
-3.70001e-07
-2.16922e-08
-3.60411e-07
-2.25271e-08
-3.50476e-07
-2.33478e-08
-3.40206e-07
-2.41499e-08
-3.2961e-07
-2.49288e-08
-3.18701e-07
-2.56794e-08
-3.07493e-07
-2.63966e-08
-2.96002e-07
-2.70749e-08
-2.84248e-07
-2.77085e-08
-2.72251e-07
-2.82915e-08
-2.60038e-07
-2.88177e-08
-2.47632e-07
-2.92807e-08
-2.35066e-07
-2.9674e-08
-2.22369e-07
-2.99909e-08
-2.09578e-07
-3.02246e-08
-1.9673e-07
-3.03685e-08
-1.83865e-07
-3.04155e-08
-1.71028e-07
-3.03591e-08
-1.58262e-07
-3.01924e-08
-1.45618e-07
-2.9909e-08
-1.33146e-07
-2.95026e-08
-1.20899e-07
-2.89672e-08
-1.08933e-07
-2.82973e-08
-9.73051e-08
-2.7488e-08
-8.60738e-08
-2.65348e-08
-7.52991e-08
-2.54345e-08
-6.50413e-08
-2.41847e-08
-5.53608e-08
-2.27844e-08
-4.63172e-08
-2.12347e-08
-3.79678e-08
-1.95386e-08
-3.03671e-08
-1.77024e-08
-2.35645e-08
-1.57364e-08
-1.76022e-08
-1.36562e-08
-1.25127e-08
-1.14844e-08
-8.31511e-09
-9.25359e-09
-5.01042e-09
-7.0095e-09
-2.57604e-09
-4.81617e-09
-9.58722e-10
-2.76262e-09
-6.60475e-11
-9.71809e-10
2.42932e-10
3.89483e-10
1.69e-10
1.09841e-09
8.39767e-10
3.77626e-11
-8.07101e-10
-1.74137e-10
-8.40586e-10
-8.70507e-10
2.2187e-10
-2.22142e-09
2.03858e-09
-4.34865e-09
4.3635e-09
-7.33373e-09
7.00734e-09
-1.12246e-08
9.8261e-09
-1.60419e-08
1.27122e-08
-2.1784e-08
1.55858e-08
-2.84322e-08
1.83884e-08
-3.59542e-08
2.10778e-08
-4.43079e-08
2.36237e-08
-5.34435e-08
2.60054e-08
-6.33062e-08
2.82093e-08
-7.38378e-08
3.02272e-08
-8.4978e-08
3.20551e-08
-9.66655e-08
3.36924e-08
-1.08839e-07
3.51408e-08
-1.21439e-07
3.64041e-08
-1.34405e-07
3.74874e-08
-1.4768e-07
3.83972e-08
-1.61209e-07
3.91407e-08
-1.74939e-07
3.97256e-08
-1.8882e-07
4.01604e-08
-2.02804e-07
4.04535e-08
-2.16845e-07
4.06137e-08
-2.30902e-07
4.06498e-08
-2.44936e-07
4.05706e-08
-2.5891e-07
4.03849e-08
-2.7279e-07
4.01011e-08
-2.86546e-07
3.97277e-08
-3.00149e-07
3.92728e-08
-3.13575e-07
3.87442e-08
-3.26799e-07
3.81494e-08
-3.39803e-07
3.74958e-08
-3.52567e-07
3.67901e-08
-3.65075e-07
3.6039e-08
-3.77314e-07
3.52486e-08
-3.89272e-07
3.44248e-08
-4.00938e-07
3.35731e-08
-4.12306e-07
3.26985e-08
-4.23367e-07
3.18059e-08
-4.34117e-07
3.08995e-08
-4.44553e-07
2.99836e-08
-4.54671e-07
2.90619e-08
-4.64472e-07
2.81376e-08
-4.73953e-07
2.7214e-08
-4.83118e-07
2.62938e-08
-4.91966e-07
2.53794e-08
-5.00501e-07
2.44731e-08
-5.08726e-07
2.35769e-08
-5.16644e-07
2.26924e-08
-5.2426e-07
2.18209e-08
-5.31579e-07
2.09639e-08
-5.38605e-07
2.01221e-08
-5.45344e-07
1.92964e-08
-5.51801e-07
1.84874e-08
-5.57983e-07
1.76954e-08
-5.63894e-07
1.69207e-08
-5.69541e-07
1.61633e-08
-5.74929e-07
1.54232e-08
-5.80064e-07
1.47e-08
-5.84952e-07
1.39935e-08
-5.89598e-07
1.33031e-08
-5.94008e-07
1.26282e-08
-5.98185e-07
1.19681e-08
-6.02136e-07
1.1322e-08
-6.05864e-07
1.06889e-08
-6.09374e-07
1.00679e-08
-6.12669e-07
9.45791e-09
-6.15753e-07
8.85774e-09
-6.18627e-07
8.26621e-09
-6.21296e-07
7.68203e-09
-6.23761e-07
7.10388e-09
-6.26023e-07
6.53037e-09
-6.28084e-07
5.96008e-09
-6.29944e-07
5.39153e-09
-6.31603e-07
4.82324e-09
-6.3306e-07
4.25366e-09
-6.34316e-07
3.68126e-09
-6.35368e-07
3.10444e-09
-6.36213e-07
2.52163e-09
-6.36851e-07
1.93121e-09
-6.37277e-07
1.3316e-09
-6.37487e-07
7.2119e-10
-6.37478e-07
9.83945e-11
-6.37245e-07
-5.38364e-10
-6.36782e-07
-1.19064e-09
-6.36084e-07
-1.85996e-09
-6.35144e-07
-2.5478e-09
-6.33955e-07
-3.25561e-09
-6.32511e-07
-3.98477e-09
-6.30804e-07
-4.7366e-09
-6.28825e-07
-5.51235e-09
-6.26566e-07
-6.31319e-09
-6.24019e-07
-7.14017e-09
-6.21173e-07
-7.99425e-09
-6.1802e-07
-8.87627e-09
-6.1455e-07
-9.78692e-09
-6.10754e-07
-1.07268e-08
-6.0662e-07
-1.16962e-08
-6.0214e-07
-1.26954e-08
-5.97304e-07
-1.37243e-08
-5.92101e-07
-1.47829e-08
-5.86521e-07
-1.58706e-08
-5.80556e-07
-1.69868e-08
-5.74196e-07
-1.81306e-08
-5.67433e-07
-1.93006e-08
-5.60258e-07
-2.04955e-08
-5.52665e-07
-2.17134e-08
-5.44645e-07
-2.2952e-08
-5.36194e-07
-2.4209e-08
-5.27306e-07
-2.54813e-08
-5.17978e-07
-2.67658e-08
-5.08207e-07
-2.80588e-08
-4.97993e-07
-2.93562e-08
-4.87335e-07
-3.06535e-08
-4.76236e-07
-3.19459e-08
-4.64701e-07
-3.32281e-08
-4.52734e-07
-3.44941e-08
-4.40343e-07
-3.57379e-08
-4.27541e-07
-3.69528e-08
-4.14338e-07
-3.81317e-08
-4.0075e-07
-3.92671e-08
-3.86795e-07
-4.03512e-08
-3.72495e-07
-4.13756e-08
-3.57872e-07
-4.23317e-08
-3.42953e-07
-4.32106e-08
-3.27767e-07
-4.40028e-08
-3.12349e-07
-4.4699e-08
-2.96734e-07
-4.52891e-08
-2.80962e-07
-4.57634e-08
-2.65074e-07
-4.61117e-08
-2.49119e-07
-4.63239e-08
-2.33145e-07
-4.63898e-08
-2.17204e-07
-4.62994e-08
-2.01354e-07
-4.60429e-08
-1.85652e-07
-4.56108e-08
-1.70161e-07
-4.49938e-08
-1.54944e-07
-4.41834e-08
-1.4007e-07
-4.31718e-08
-1.25606e-07
-4.19518e-08
-1.11623e-07
-4.05178e-08
-9.81926e-08
-3.88652e-08
-8.53859e-08
-3.69914e-08
-7.32744e-08
-3.48959e-08
-6.19278e-08
-3.25813e-08
-5.1413e-08
-3.00533e-08
-4.17928e-08
-2.73227e-08
-3.31235e-08
-2.44057e-08
-2.5453e-08
-2.13266e-08
-1.88177e-08
-1.81197e-08
-1.32388e-08
-1.48325e-08
-8.71805e-09
-1.15303e-08
-5.23268e-09
-8.30152e-09
-2.72947e-09
-5.26582e-09
-1.11795e-09
-2.58333e-09
-2.63115e-10
-4.65373e-10
2.32567e-11
8.12032e-10
8.63034e-10
-1.10595e-10
-6.96508e-10
-6.93983e-10
-2.57195e-10
-1.94601e-09
1.47389e-09
-4.0145e-09
4.10706e-09
-7.00724e-09
7.35623e-09
-1.0997e-08
1.09971e-08
-1.60263e-08
1.48553e-08
-2.21117e-08
1.87976e-08
-2.92486e-08
2.27227e-08
-3.7415e-08
2.65548e-08
-4.65748e-08
3.02376e-08
-5.66812e-08
3.37301e-08
-6.76793e-08
3.70034e-08
-7.9508e-08
4.0038e-08
-9.21023e-08
4.28215e-08
-1.05395e-07
4.53474e-08
-1.19316e-07
4.76137e-08
-1.33797e-07
4.96219e-08
-1.48769e-07
5.13762e-08
-1.64165e-07
5.28831e-08
-1.79918e-07
5.41507e-08
-1.95966e-07
5.51884e-08
-2.12247e-07
5.60066e-08
-2.28703e-07
5.66162e-08
-2.45278e-07
5.7029e-08
-2.61921e-07
5.72566e-08
-2.78583e-07
5.73112e-08
-2.95217e-07
5.72046e-08
-3.11781e-07
5.6949e-08
-3.28236e-07
5.6556e-08
-3.44545e-07
5.60372e-08
-3.60676e-07
5.54039e-08
-3.76599e-07
5.46668e-08
-3.92286e-07
5.38365e-08
-4.07713e-07
5.29231e-08
-4.22859e-07
5.19361e-08
-4.37705e-07
5.08847e-08
-4.52234e-07
4.97776e-08
-4.66432e-07
4.86229e-08
-4.80287e-07
4.74283e-08
-4.9379e-07
4.6201e-08
-5.06932e-07
4.49476e-08
-5.19706e-07
4.36743e-08
-5.3211e-07
4.23869e-08
-5.44138e-07
4.10906e-08
-5.55791e-07
3.97902e-08
-5.67067e-07
3.84901e-08
-5.77968e-07
3.71941e-08
-5.88494e-07
3.59059e-08
-5.98649e-07
3.46285e-08
-6.08437e-07
3.33646e-08
-6.17861e-07
3.21166e-08
-6.26927e-07
3.08867e-08
-6.3564e-07
2.96764e-08
-6.44005e-07
2.84873e-08
-6.52029e-07
2.73203e-08
-6.59718e-07
2.61764e-08
-6.67079e-07
2.50561e-08
-6.74118e-07
2.39598e-08
-6.80842e-07
2.28875e-08
-6.87258e-07
2.18391e-08
-6.93372e-07
2.08144e-08
-6.99191e-07
1.98128e-08
-7.04722e-07
1.88335e-08
-7.0997e-07
1.78759e-08
-7.1494e-07
1.69389e-08
-7.1964e-07
1.60214e-08
-7.24073e-07
1.5122e-08
-7.28244e-07
1.42394e-08
-7.32159e-07
1.33722e-08
-7.3582e-07
1.25187e-08
-7.3923e-07
1.16771e-08
-7.42394e-07
1.08458e-08
-7.45313e-07
1.00229e-08
-7.47989e-07
9.20647e-09
-7.50424e-07
8.39445e-09
-7.52617e-07
7.58485e-09
-7.54569e-07
6.77555e-09
-7.5628e-07
5.96442e-09
-7.57748e-07
5.1493e-09
-7.58972e-07
4.32797e-09
-7.59948e-07
3.49822e-09
-7.60675e-07
2.65783e-09
-7.61148e-07
1.80454e-09
-7.61363e-07
9.36141e-10
-7.61315e-07
5.04074e-11
-7.60998e-07
-8.54854e-10
-7.60407e-07
-1.78181e-09
-7.59535e-07
-2.73257e-09
-7.58373e-07
-3.70921e-09
-7.56915e-07
-4.71373e-09
-7.55152e-07
-5.74804e-09
-7.53074e-07
-6.81399e-09
-7.50673e-07
-7.91328e-09
-7.47939e-07
-9.04753e-09
-7.44861e-07
-1.02182e-08
-7.41429e-07
-1.14266e-08
-7.37631e-07
-1.26739e-08
-7.33457e-07
-1.3961e-08
-7.28895e-07
-1.52887e-08
-7.23934e-07
-1.66574e-08
-7.18562e-07
-1.80674e-08
-7.12767e-07
-1.95188e-08
-7.06539e-07
-2.10111e-08
-6.99866e-07
-2.25438e-08
-6.92737e-07
-2.41159e-08
-6.85142e-07
-2.57259e-08
-6.7707e-07
-2.73722e-08
-6.68513e-07
-2.90527e-08
-6.59462e-07
-3.07646e-08
-6.49909e-07
-3.2505e-08
-6.39847e-07
-3.42703e-08
-6.29272e-07
-3.60564e-08
-6.18179e-07
-3.78587e-08
-6.06566e-07
-3.96721e-08
-5.94431e-07
-4.14909e-08
-5.81776e-07
-4.33088e-08
-5.68603e-07
-4.51189e-08
-5.54917e-07
-4.69138e-08
-5.40726e-07
-4.86854e-08
-5.26039e-07
-5.04249e-08
-5.10869e-07
-5.21233e-08
-4.9523e-07
-5.37705e-08
-4.79141e-07
-5.53561e-08
-4.62623e-07
-5.68692e-08
-4.457e-07
-5.82982e-08
-4.28401e-07
-5.96311e-08
-4.10756e-07
-6.08553e-08
-3.92801e-07
-6.19582e-08
-3.74574e-07
-6.29262e-08
-3.56117e-07
-6.3746e-08
-3.37476e-07
-6.44038e-08
-3.18702e-07
-6.48857e-08
-2.99849e-07
-6.51776e-08
-2.80972e-07
-6.52659e-08
-2.62135e-07
-6.51366e-08
-2.43402e-07
-6.47765e-08
-2.2484e-07
-6.41727e-08
-2.06521e-07
-6.33127e-08
-1.88519e-07
-6.21852e-08
-1.70911e-07
-6.07797e-08
-1.53776e-07
-5.90873e-08
-1.37193e-07
-5.71005e-08
-1.21244e-07
-5.4814e-08
-1.0601e-07
-5.22251e-08
-9.15721e-08
-4.93343e-08
-7.80073e-08
-4.6146e-08
-6.53911e-08
-4.26696e-08
-5.3793e-08
-3.89207e-08
-4.32757e-08
-3.49231e-08
-3.3892e-08
-3.07103e-08
-2.56826e-08
-2.63291e-08
-1.86723e-08
-2.18428e-08
-1.28663e-08
-1.73363e-08
-8.24589e-09
-1.29219e-08
-4.76395e-09
-8.74774e-09
-2.33985e-09
-5.00742e-09
-8.54612e-10
-1.95061e-09
-1.45844e-10
1.03255e-10
7.17194e-10
-2.68849e-10
-4.27665e-10
-1.25597e-09
7.29925e-10
-3.11207e-09
3.32999e-09
-5.95544e-09
6.95043e-09
-9.87351e-09
1.12743e-08
-1.49249e-08
1.60485e-08
-2.11421e-08
2.10726e-08
-2.85346e-08
2.61901e-08
-3.70921e-08
3.12802e-08
-4.67874e-08
3.62502e-08
-5.75801e-08
4.10302e-08
-6.94183e-08
4.55683e-08
-8.2242e-08
4.98272e-08
-9.59848e-08
5.37807e-08
-1.10576e-07
5.74122e-08
-1.2594e-07
6.07121e-08
-1.42003e-07
6.36767e-08
-1.58688e-07
6.6307e-08
-1.7592e-07
6.86076e-08
-1.93623e-07
7.05861e-08
-2.11724e-07
7.22523e-08
-2.30154e-07
7.36179e-08
-2.48843e-07
7.46959e-08
-2.67727e-07
7.55002e-08
-2.86744e-07
7.60457e-08
-3.05835e-07
7.63474e-08
-3.24945e-07
7.6421e-08
-3.44022e-07
7.62819e-08
-3.63018e-07
7.59456e-08
-3.8189e-07
7.54275e-08
-4.00595e-07
7.47426e-08
-4.19097e-07
7.39057e-08
-4.37361e-07
7.2931e-08
-4.55357e-07
7.18323e-08
-4.73057e-07
7.06227e-08
-4.90436e-07
6.93151e-08
-5.07472e-07
6.79214e-08
-5.24148e-07
6.6453e-08
-5.40446e-07
6.49208e-08
-5.56352e-07
6.33349e-08
-5.71856e-07
6.17048e-08
-5.86948e-07
6.00394e-08
-6.0162e-07
5.83469e-08
-6.15868e-07
5.66349e-08
-6.29688e-07
5.49103e-08
-6.43077e-07
5.31797e-08
-6.56036e-07
5.14487e-08
-6.68564e-07
4.97226e-08
-6.80665e-07
4.80061e-08
-6.92339e-07
4.63033e-08
-7.03593e-07
4.4618e-08
-7.1443e-07
4.29533e-08
-7.24855e-07
4.1312e-08
-7.34875e-07
3.96964e-08
-7.44496e-07
3.81083e-08
-7.53725e-07
3.65492e-08
-7.62569e-07
3.50204e-08
-7.71035e-07
3.35225e-08
-7.79131e-07
3.20561e-08
-7.86865e-07
3.06213e-08
-7.94244e-07
2.92179e-08
-8.01275e-07
2.78457e-08
-8.07966e-07
2.65038e-08
-8.14324e-07
2.51916e-08
-8.20356e-07
2.39077e-08
-8.26068e-07
2.2651e-08
-8.31467e-07
2.14199e-08
-8.36558e-07
2.02129e-08
-8.41346e-07
1.9028e-08
-8.45837e-07
1.78632e-08
-8.50035e-07
1.67166e-08
-8.53944e-07
1.55858e-08
-8.57566e-07
1.44684e-08
-8.60906e-07
1.33621e-08
-8.63963e-07
1.22643e-08
-8.66741e-07
1.11723e-08
-8.6924e-07
1.00835e-08
-8.71459e-07
8.99505e-09
-8.73399e-07
7.90413e-09
-8.75058e-07
6.80789e-09
-8.76433e-07
5.70341e-09
-8.77523e-07
4.58778e-09
-8.78323e-07
3.45804e-09
-8.7883e-07
2.31124e-09
-8.79038e-07
1.14444e-09
-8.78942e-07
-4.52879e-11
-8.78536e-07
-1.26083e-09
-8.77813e-07
-2.50504e-09
-8.76765e-07
-3.7807e-09
-8.75384e-07
-5.09053e-09
-8.7366e-07
-6.43717e-09
-8.71585e-07
-7.82313e-09
-8.69148e-07
-9.25081e-09
-8.66339e-07
-1.07225e-08
-8.63146e-07
-1.22402e-08
-8.59559e-07
-1.38059e-08
-8.55564e-07
-1.54214e-08
-8.5115e-07
-1.70879e-08
-8.46304e-07
-1.88069e-08
-8.41013e-07
-2.05792e-08
-8.35265e-07
-2.24055e-08
-8.29047e-07
-2.42861e-08
-8.22345e-07
-2.62208e-08
-8.15146e-07
-2.82093e-08
-8.0744e-07
-3.02507e-08
-7.99212e-07
-3.23435e-08
-7.90452e-07
-3.44861e-08
-7.81148e-07
-3.6676e-08
-7.7129e-07
-3.89103e-08
-7.60869e-07
-4.11856e-08
-7.49877e-07
-4.34978e-08
-7.38305e-07
-4.5842e-08
-7.26148e-07
-4.82131e-08
-7.13402e-07
-5.06047e-08
-7.00064e-07
-5.30101e-08
-6.86133e-07
-5.54217e-08
-6.71611e-07
-5.78313e-08
-6.565e-07
-6.02296e-08
-6.40807e-07
-6.26069e-08
-6.2454e-07
-6.49525e-08
-6.0771e-07
-6.72548e-08
-5.90332e-07
-6.95017e-08
-5.72422e-07
-7.16801e-08
-5.54002e-07
-7.37764e-08
-5.35095e-07
-7.57759e-08
-5.1573e-07
-7.76636e-08
-4.95937e-07
-7.94236e-08
-4.75753e-07
-8.10396e-08
-4.55216e-07
-8.24946e-08
-4.34371e-07
-8.37713e-08
-4.13265e-07
-8.48519e-08
-3.91951e-07
-8.57185e-08
-3.70483e-07
-8.6353e-08
-3.48924e-07
-8.67372e-08
-3.27336e-07
-8.68531e-08
-3.0579e-07
-8.66829e-08
-2.84357e-07
-8.62094e-08
-2.63114e-07
-8.5416e-08
-2.4214e-07
-8.4287e-08
-2.21517e-07
-8.28079e-08
-2.01331e-07
-8.09656e-08
-1.81669e-07
-7.87491e-08
-1.6262e-07
-7.61494e-08
-1.44274e-07
-7.31605e-08
-1.26719e-07
-6.97798e-08
-1.10044e-07
-6.60091e-08
-9.43351e-08
-6.18552e-08
-7.96732e-08
-5.73315e-08
-6.61346e-08
-5.24593e-08
-5.37877e-08
-4.72699e-08
-4.26909e-08
-4.18071e-08
-3.28899e-08
-3.613e-08
-2.4415e-08
-3.03177e-08
-1.72776e-08
-2.44738e-08
-1.14669e-08
-1.87326e-08
-6.94669e-09
-1.32679e-08
-3.65231e-09
-8.30179e-09
-1.48777e-09
-4.11515e-09
-3.2433e-10
-1.06019e-09
3.92863e-10
-4.29736e-10
2.06491e-12
-1.83523e-09
2.13541e-09
-4.32106e-09
5.81583e-09
-7.97234e-09
1.06017e-08
-1.28521e-08
1.6154e-08
-1.90009e-08
2.21973e-08
-2.64378e-08
2.85094e-08
-3.51621e-08
3.49144e-08
-4.51554e-08
4.12735e-08
-5.63842e-08
4.7479e-08
-6.8802e-08
5.34479e-08
-8.23516e-08
5.9118e-08
-9.69677e-08
6.44432e-08
-1.12578e-07
6.93913e-08
-1.29107e-07
7.39407e-08
-1.46473e-07
7.80787e-08
-1.64596e-07
8.17999e-08
-1.83394e-07
8.51044e-08
-2.02783e-07
8.79971e-08
-2.22684e-07
9.04867e-08
-2.43016e-07
9.25848e-08
-2.63704e-07
9.43053e-08
-2.84672e-07
9.5664e-08
-3.0585e-07
9.66778e-08
-3.27169e-07
9.73649e-08
-3.48565e-07
9.77441e-08
-3.69979e-07
9.78346e-08
-3.91353e-07
9.76556e-08
-4.12634e-07
9.72266e-08
-4.33773e-07
9.65668e-08
-4.54726e-07
9.5695e-08
-4.7545e-07
9.46297e-08
-4.95907e-07
9.33888e-08
-5.16065e-07
9.19898e-08
-5.35892e-07
9.04494e-08
-5.5536e-07
8.87835e-08
-5.74446e-07
8.70074e-08
-5.93129e-07
8.51356e-08
-6.1139e-07
8.31818e-08
-6.29214e-07
8.1159e-08
-6.46588e-07
7.90791e-08
-6.63502e-07
7.69535e-08
-6.79948e-07
7.47926e-08
-6.95919e-07
7.26061e-08
-7.11412e-07
7.0403e-08
-7.26423e-07
6.81913e-08
-7.40953e-07
6.59785e-08