/*--------------------------------*- C++ -*----------------------------------*\
  =========                 |
  \\      /  F ield         | OpenFOAM: The Open Source CFD Toolbox
   \\    /   O peration     | Website:  https://openfoam.org
    \\  /    A nd           | Version:  7
     \\/     M anipulation  |
\*---------------------------------------------------------------------------*/
FoamFile
{
    version     2.0;
    format      ascii;
    class       volVectorField;
    location    "0.3";
    object      U;
}
// * * * * * * * * * * * * * * * * * * * * * * * * * * * * * * * * * * * * * //

dimensions      [0 1 -1 0 0 0 0];

internalField   nonuniform List<vector> 
12800
(
(8.32453e-06 -8.32385e-06 0)
(3.70876e-05 -1.8536e-05 0)
(7.85393e-05 -1.97127e-05 0)
(0.000113256 -1.53551e-05 0)
(0.000130001 -8.31245e-06 0)
(0.000123889 -1.39223e-07 0)
(9.27743e-05 8.3437e-06 0)
(3.6044e-05 1.66962e-05 0)
(-4.59454e-05 2.46855e-05 0)
(-0.000152247 3.2192e-05 0)
(-0.00028156 3.91566e-05 0)
(-0.00043238 4.5554e-05 0)
(-0.000603083 5.13788e-05 0)
(-0.000791992 5.66376e-05 0)
(-0.000997416 6.13443e-05 0)
(-0.00121768 6.55177e-05 0)
(-0.00145114 6.91797e-05 0)
(-0.0016962 7.23536e-05 0)
(-0.00195133 7.50643e-05 0)
(-0.00221505 7.73369e-05 0)
(-0.00248598 7.91972e-05 0)
(-0.00276278 8.06705e-05 0)
(-0.0030442 8.17824e-05 0)
(-0.00332908 8.25575e-05 0)
(-0.0036163 8.30204e-05 0)
(-0.00390486 8.31948e-05 0)
(-0.0041938 8.31037e-05 0)
(-0.00448224 8.27693e-05 0)
(-0.00476939 8.22131e-05 0)
(-0.0050545 8.14557e-05 0)
(-0.00533692 8.05168e-05 0)
(-0.00561603 7.94153e-05 0)
(-0.00589129 7.81688e-05 0)
(-0.00616223 7.67944e-05 0)
(-0.0064284 7.53081e-05 0)
(-0.00668943 7.37247e-05 0)
(-0.00694499 7.20586e-05 0)
(-0.00719482 7.03228e-05 0)
(-0.00743866 6.85297e-05 0)
(-0.00767633 6.66906e-05 0)
(-0.00790766 6.48162e-05 0)
(-0.00813254 6.29161e-05 0)
(-0.00835088 6.09993e-05 0)
(-0.00856262 5.90739e-05 0)
(-0.00876772 5.71473e-05 0)
(-0.00896618 5.52261e-05 0)
(-0.00915801 5.33164e-05 0)
(-0.00934326 5.14234e-05 0)
(-0.00952197 4.9552e-05 0)
(-0.00969421 4.7706e-05 0)
(-0.00986007 4.58892e-05 0)
(-0.0100196 4.41045e-05 0)
(-0.010173 4.23544e-05 0)
(-0.0103203 4.0641e-05 0)
(-0.0104617 3.89658e-05 0)
(-0.0105972 3.73301e-05 0)
(-0.0107271 3.57346e-05 0)
(-0.0108514 3.41797e-05 0)
(-0.0109703 3.26656e-05 0)
(-0.0110838 3.1192e-05 0)
(-0.0111923 2.97584e-05 0)
(-0.0112957 2.83639e-05 0)
(-0.0113942 2.70075e-05 0)
(-0.0114879 2.56878e-05 0)
(-0.011577 2.44034e-05 0)
(-0.0116615 2.31526e-05 0)
(-0.0117416 2.19333e-05 0)
(-0.0118174 2.07436e-05 0)
(-0.011889 1.95811e-05 0)
(-0.0119564 1.84436e-05 0)
(-0.0120197 1.73282e-05 0)
(-0.0120791 1.62325e-05 0)
(-0.0121345 1.51535e-05 0)
(-0.0121861 1.40884e-05 0)
(-0.0122338 1.30344e-05 0)
(-0.0122777 1.19882e-05 0)
(-0.0123178 1.09467e-05 0)
(-0.0123541 9.90632e-06 0)
(-0.0123867 8.86398e-06 0)
(-0.0124155 7.81638e-06 0)
(-0.0124404 6.76018e-06 0)
(-0.0124615 5.69188e-06 0)
(-0.0124787 4.60787e-06 0)
(-0.0124919 3.50456e-06 0)
(-0.012501 2.37847e-06 0)
(-0.0125061 1.22619e-06 0)
(-0.0125069 4.4287e-08 0)
(-0.0125034 -1.17073e-06 0)
(-0.0124955 -2.42238e-06 0)
(-0.012483 -3.71409e-06 0)
(-0.0124657 -5.04914e-06 0)
(-0.0124436 -6.4307e-06 0)
(-0.0124165 -7.8618e-06 0)
(-0.0123842 -9.34544e-06 0)
(-0.0123464 -1.08845e-05 0)
(-0.0123031 -1.24816e-05 0)
(-0.012254 -1.41392e-05 0)
(-0.0121989 -1.58596e-05 0)
(-0.0121376 -1.76446e-05 0)
(-0.0120699 -1.94959e-05 0)
(-0.0119955 -2.14149e-05 0)
(-0.0119142 -2.34025e-05 0)
(-0.0118259 -2.54593e-05 0)
(-0.0117302 -2.75857e-05 0)
(-0.0116269 -2.97812e-05 0)
(-0.0115159 -3.2045e-05 0)
(-0.0113968 -3.43757e-05 0)
(-0.0112695 -3.67715e-05 0)
(-0.0111338 -3.92297e-05 0)
(-0.0109894 -4.17471e-05 0)
(-0.0108363 -4.43198e-05 0)
(-0.0106741 -4.6943e-05 0)
(-0.0105028 -4.96111e-05 0)
(-0.0103223 -5.23177e-05 0)
(-0.0101324 -5.50557e-05 0)
(-0.00993308 -5.78167e-05 0)
(-0.00972428 -6.05917e-05 0)
(-0.00950598 -6.33707e-05 0)
(-0.00927821 -6.61425e-05 0)
(-0.00904105 -6.88949e-05 0)
(-0.00879458 -7.16148e-05 0)
(-0.00853898 -7.42879e-05 0)
(-0.00827445 -7.6899e-05 0)
(-0.00800125 -7.94319e-05 0)
(-0.00771969 -8.18692e-05 0)
(-0.00743015 -8.41925e-05 0)
(-0.00713308 -8.63824e-05 0)
(-0.00682898 -8.84187e-05 0)
(-0.00651842 -9.02803e-05 0)
(-0.00620207 -9.19451e-05 0)
(-0.00588064 -9.33903e-05 0)
(-0.00555493 -9.45923e-05 0)
(-0.00522583 -9.55269e-05 0)
(-0.00489429 -9.61694e-05 0)
(-0.00456136 -9.64946e-05 0)
(-0.00422817 -9.64769e-05 0)
(-0.00389591 -9.60906e-05 0)
(-0.00356587 -9.53095e-05 0)
(-0.00323944 -9.41077e-05 0)
(-0.00291806 -9.24589e-05 0)
(-0.00260325 -9.03374e-05 0)
(-0.00229663 -8.77179e-05 0)
(-0.00199988 -8.45756e-05 0)
(-0.00171472 -8.08863e-05 0)
(-0.00144298 -7.6627e-05 0)
(-0.00118649 -7.1776e-05 0)
(-0.000947168 -6.63141e-05 0)
(-0.000726916 -6.02249e-05 0)
(-0.00052766 -5.3497e-05 0)
(-0.000351293 -4.61267e-05 0)
(-0.00019964 -3.81221e-05 0)
(-7.43899e-05 -2.95113e-05 0)
(2.29978e-05 -2.03581e-05 0)
(9.14495e-05 -1.07909e-05 0)
(0.000130536 -1.0604e-06 0)
(0.000140892 8.35398e-06 0)
(0.000124832 1.65482e-05 0)
(8.7719e-05 2.17901e-05 0)
(4.20456e-05 2.08597e-05 0)
(9.63432e-06 9.63135e-06 0)
(1.8554e-05 -3.70898e-05 0)
(7.036e-05 -7.02996e-05 0)
(0.000132065 -6.77605e-05 0)
(0.000170174 -4.20926e-05 0)
(0.000163402 -3.15645e-06 0)
(0.000100315 4.27144e-05 0)
(-2.53511e-05 9.15513e-05 0)
(-0.000216335 0.000140872 0)
(-0.000472847 0.000189131 0)
(-0.000793382 0.000235367 0)
(-0.0011753 0.000278988 0)
(-0.0016152 0.000319641 0)
(-0.00210922 0.000357127 0)
(-0.00265321 0.000391358 0)
(-0.00324285 0.000422317 0)
(-0.00387378 0.000450037 0)
(-0.00454168 0.000474592 0)
(-0.00524229 0.000496078 0)
(-0.00597144 0.000514611 0)
(-0.00672515 0.00053032 0)
(-0.00749956 0.000543343 0)
(-0.00829102 0.000553824 0)
(-0.00909603 0.000561908 0)
(-0.00991133 0.000567746 0)
(-0.0107338 0.000571483 0)
(-0.0115606 0.000573269 0)
(-0.012389 0.000573247 0)
(-0.0132166 0.000571558 0)
(-0.014041 0.000568341 0)
(-0.0148601 0.000563729 0)
(-0.015672 0.00055785 0)
(-0.016475 0.000550829 0)
(-0.0172675 0.000542783 0)
(-0.018048 0.000533825 0)
(-0.0188153 0.000524064 0)
(-0.0195684 0.000513599 0)
(-0.0203061 0.000502527 0)
(-0.0210278 0.000490937 0)
(-0.0217326 0.000478914 0)
(-0.0224201 0.000466537 0)
(-0.0230896 0.000453878 0)
(-0.0237409 0.000441004 0)
(-0.0243735 0.000427978 0)
(-0.0249875 0.000414857 0)
(-0.0255825 0.000401693 0)
(-0.0261586 0.000388532 0)
(-0.0267157 0.000375418 0)
(-0.027254 0.000362388 0)
(-0.0277736 0.000349476 0)
(-0.0282746 0.000336712 0)
(-0.0287572 0.000324122 0)
(-0.0292218 0.000311728 0)
(-0.0296685 0.000299548 0)
(-0.0300977 0.000287599 0)
(-0.0305097 0.000275892 0)
(-0.0309049 0.000264437 0)
(-0.0312836 0.000253241 0)
(-0.0316462 0.000242308 0)
(-0.031993 0.000231638 0)
(-0.0323244 0.000221234 0)
(-0.0326408 0.00021109 0)
(-0.0329425 0.000201204 0)
(-0.03323 0.000191567 0)
(-0.0335035 0.000182173 0)
(-0.0337634 0.000173012 0)
(-0.03401 0.000164072 0)
(-0.0342436 0.000155342 0)
(-0.0344645 0.000146806 0)
(-0.0346729 0.000138451 0)
(-0.0348692 0.00013026 0)
(-0.0350535 0.000122217 0)
(-0.035226 0.000114303 0)
(-0.0353869 0.000106499 0)
(-0.0355364 9.87866e-05 0)
(-0.0356745 9.11451e-05 0)
(-0.0358013 8.35538e-05 0)
(-0.0359169 7.59912e-05 0)
(-0.0360213 6.8435e-05 0)
(-0.0361146 6.08628e-05 0)
(-0.0361965 5.32521e-05 0)
(-0.0362672 4.55802e-05 0)
(-0.0363265 3.78237e-05 0)
(-0.0363742 2.9959e-05 0)
(-0.0364101 2.19624e-05 0)
(-0.0364342 1.38102e-05 0)
(-0.036446 5.47895e-06 0)
(-0.0364454 -3.05433e-06 0)
(-0.0364321 -1.18128e-05 0)
(-0.0364056 -2.08192e-05 0)
(-0.0363657 -3.00962e-05 0)
(-0.0363119 -3.96655e-05 0)
(-0.0362439 -4.9548e-05 0)
(-0.036161 -5.97639e-05 0)
(-0.0360629 -7.03323e-05 0)
(-0.0359491 -8.12714e-05 0)
(-0.0358189 -9.25982e-05 0)
(-0.0356719 -0.000104328 0)
(-0.0355074 -0.000116475 0)
(-0.0353249 -0.00012905 0)
(-0.0351238 -0.000142063 0)
(-0.0349034 -0.000155522 0)
(-0.034663 -0.000169433 0)
(-0.0344021 -0.000183796 0)
(-0.0341201 -0.000198612 0)
(-0.0338162 -0.000213876 0)
(-0.0334899 -0.000229582 0)
(-0.0331405 -0.000245718 0)
(-0.0327675 -0.000262268 0)
(-0.0323703 -0.000279213 0)
(-0.0319484 -0.000296529 0)
(-0.0315013 -0.000314186 0)
(-0.0310286 -0.000332152 0)
(-0.0305298 -0.000350385 0)
(-0.0300047 -0.000368841 0)
(-0.0294529 -0.000387469 0)
(-0.0288744 -0.000406212 0)
(-0.028269 -0.000425005 0)
(-0.0276367 -0.00044378 0)
(-0.0269777 -0.000462459 0)
(-0.0262921 -0.00048096 0)
(-0.0255803 -0.000499193 0)
(-0.0248429 -0.000517061 0)
(-0.0240804 -0.000534461 0)
(-0.0232936 -0.000551283 0)
(-0.0224834 -0.00056741 0)
(-0.0216511 -0.000582719 0)
(-0.0207978 -0.000597082 0)
(-0.019925 -0.000610364 0)
(-0.0190344 -0.000622424 0)
(-0.018128 -0.000633118 0)
(-0.0172076 -0.000642296 0)
(-0.0162758 -0.000649805 0)
(-0.0153349 -0.000655487 0)
(-0.0143877 -0.000659183 0)
(-0.0134371 -0.000660732 0)
(-0.0124864 -0.000659973 0)
(-0.0115388 -0.000656744 0)
(-0.0105982 -0.000650884 0)
(-0.00966814 -0.000642235 0)
(-0.00875283 -0.000630643 0)
(-0.00785647 -0.000615958 0)
(-0.00698348 -0.000598038 0)
(-0.00613847 -0.000576752 0)
(-0.00532618 -0.00055198 0)
(-0.00455149 -0.000523621 0)
(-0.00381936 -0.000491592 0)
(-0.00313481 -0.000455841 0)
(-0.00250282 -0.000416358 0)
(-0.00192832 -0.000373184 0)
(-0.001416 -0.00032644 0)
(-0.000970249 -0.000276359 0)
(-0.000594871 -0.000223341 0)
(-0.000292855 -0.00016804 0)
(-6.59167e-05 -0.00011151 0)
(8.61181e-05 -5.54471e-05 0)
(0.00016622 -2.584e-06 0)
(0.000181276 4.26748e-05 0)
(0.000143955 7.32392e-05 0)
(7.79754e-05 7.79368e-05 0)
(2.08629e-05 4.20277e-05 0)
(1.98062e-05 -7.86316e-05 0)
(6.81131e-05 -0.000132097 0)
(0.000111214 -0.000110676 0)
(0.00011041 -3.94644e-05 0)
(4.04405e-05 6.29585e-05 0)
(-0.000113555 0.000183373 0)
(-0.000360473 0.000312633 0)
(-0.000704712 0.00044453 0)
(-0.00114722 0.000574884 0)
(-0.00168643 0.000700902 0)
(-0.00231901 0.000820734 0)
(-0.00304037 0.000933185 0)
(-0.00384508 0.00103752 0)
(-0.00472716 0.00113331 0)
(-0.00568029 0.00122038 0)
(-0.006698 0.00129871 0)
(-0.00777375 0.00136841 0)
(-0.00890107 0.00142967 0)
(-0.0100736 0.00148275 0)
(-0.0112852 0.00152796 0)
(-0.0125299 0.00156566 0)
(-0.013802 0.00159619 0)
(-0.0150959 0.00161996 0)
(-0.0164067 0.00163736 0)
(-0.0177294 0.00164878 0)
(-0.0190594 0.00165463 0)
(-0.0203924 0.0016553 0)
(-0.0217246 0.00165119 0)
(-0.0230522 0.00164267 0)
(-0.0243719 0.00163013 0)
(-0.0256805 0.00161392 0)
(-0.0269753 0.00159438 0)
(-0.0282536 0.00157186 0)
(-0.0295133 0.00154668 0)
(-0.0307522 0.00151913 0)
(-0.0319686 0.00148952 0)
(-0.0331608 0.0014581 0)
(-0.0343275 0.00142514 0)
(-0.0354675 0.00139089 0)
(-0.0365799 0.00135556 0)
(-0.0376637 0.00131937 0)
(-0.0387184 0.00128251 0)
(-0.0397435 0.00124517 0)
(-0.0407385 0.0012075 0)
(-0.0417033 0.00116966 0)
(-0.0426377 0.00113179 0)
(-0.0435417 0.00109401 0)
(-0.0444155 0.00105643 0)
(-0.0452591 0.00101915 0)
(-0.0460728 0.000982259 0)
(-0.046857 0.000945834 0)
(-0.047612 0.000909941 0)
(-0.0483383 0.000874636 0)
(-0.0490362 0.000839963 0)
(-0.0497063 0.000805962 0)
(-0.0503492 0.000772661 0)
(-0.0509654 0.000740081 0)
(-0.0515554 0.000708236 0)
(-0.0521198 0.000677132 0)
(-0.0526592 0.000646769 0)
(-0.0531742 0.000617142 0)
(-0.0536654 0.000588238 0)
(-0.0541333 0.00056004 0)
(-0.0545784 0.000532526 0)
(-0.0550013 0.000505669 0)
(-0.0554025 0.000479438 0)
(-0.0557824 0.000453798 0)
(-0.0561416 0.000428711 0)
(-0.0564805 0.000404133 0)
(-0.0567993 0.00038002 0)
(-0.0570985 0.000356324 0)
(-0.0573784 0.000332993 0)
(-0.0576392 0.000309974 0)
(-0.0578812 0.000287211 0)
(-0.0581045 0.000264647 0)
(-0.0583093 0.000242223 0)
(-0.0584957 0.000219876 0)
(-0.0586637 0.000197545 0)
(-0.0588132 0.000175166 0)
(-0.0589442 0.000152673 0)
(-0.0590567 0.000130001 0)
(-0.0591503 0.000107084 0)
(-0.059225 8.38549e-05 0)
(-0.0592803 6.02465e-05 0)
(-0.0593161 3.61915e-05 0)
(-0.0593318 1.16232e-05 0)
(-0.0593272 -1.35247e-05 0)
(-0.0593016 -3.93176e-05 0)
(-0.0592545 -6.58198e-05 0)
(-0.0591854 -9.30945e-05 0)
(-0.0590937 -0.000121203 0)
(-0.0589785 -0.000150205 0)
(-0.0588393 -0.000180156 0)
(-0.0586751 -0.000211111 0)
(-0.0584853 -0.00024312 0)
(-0.058269 -0.00027623 0)
(-0.0580252 -0.000310483 0)
(-0.0577531 -0.000345916 0)
(-0.0574517 -0.000382562 0)
(-0.05712 -0.000420446 0)
(-0.0567571 -0.000459589 0)
(-0.056362 -0.000500001 0)
(-0.0559337 -0.000541688 0)
(-0.0554712 -0.000584645 0)
(-0.0549734 -0.000628857 0)
(-0.0544395 -0.000674302 0)
(-0.0538685 -0.000720943 0)
(-0.0532595 -0.000768735 0)
(-0.0526116 -0.000817619 0)
(-0.0519241 -0.000867523 0)
(-0.0511961 -0.00091836 0)
(-0.050427 -0.000970031 0)
(-0.0496162 -0.00102242 0)
(-0.0487633 -0.00107539 0)
(-0.0478679 -0.0011288 0)
(-0.0469297 -0.00118248 0)
(-0.0459486 -0.00123625 0)
(-0.0449248 -0.00128991 0)
(-0.0438584 -0.00134323 0)
(-0.0427498 -0.00139597 0)
(-0.0415997 -0.00144789 0)
(-0.0404088 -0.0014987 0)
(-0.0391782 -0.0015481 0)
(-0.0379093 -0.00159579 0)
(-0.0366035 -0.00164144 0)
(-0.0352627 -0.00168468 0)
(-0.0338889 -0.00172516 0)
(-0.0324845 -0.0017625 0)
(-0.0310523 -0.00179629 0)
(-0.0295953 -0.00182614 0)
(-0.0281168 -0.00185162 0)
(-0.0266204 -0.00187229 0)
(-0.0251102 -0.00188773 0)
(-0.0235905 -0.00189749 0)
(-0.022066 -0.00190111 0)
(-0.0205417 -0.00189816 0)
(-0.019023 -0.0018882 0)
(-0.0175156 -0.00187077 0)
(-0.0160255 -0.00184547 0)
(-0.0145591 -0.00181187 0)
(-0.013123 -0.00176959 0)
(-0.011724 -0.00171826 0)
(-0.0103693 -0.00165757 0)
(-0.00906624 -0.00158722 0)
(-0.00782225 -0.00150699 0)
(-0.00664488 -0.00141675 0)
(-0.0055417 -0.00131644 0)
(-0.00452014 -0.00120617 0)
(-0.00358742 -0.00108619 0)
(-0.00275035 -0.000957033 0)
(-0.00201505 -0.000819556 0)
(-0.00138672 -0.000675114 0)
(-0.000869122 -0.000525764 0)
(-0.00046404 -0.000374596 0)
(-0.000170483 -0.000226221 0)
(1.63809e-05 -8.75135e-05 0)
(0.000106393 3.13464e-05 0)
(0.000116077 0.000115533 0)
(7.35405e-05 0.000143994 0)
(2.18467e-05 8.77454e-05 0)
(1.55804e-05 -0.000113669 0)
(4.29248e-05 -0.000170674 0)
(4.08968e-05 -0.000110079 0)
(-2.81185e-05 2.97222e-05 0)
(-0.000189819 0.000221188 0)
(-0.000460395 0.000443882 0)
(-0.00084992 0.000682937 0)
(-0.00136363 0.00092776 0)
(-0.00200288 0.00117088 0)
(-0.00276609 0.00140707 0)
(-0.00364948 0.00163272 0)
(-0.00464764 0.0018454 0)
(-0.00575401 0.00204351 0)
(-0.00696123 0.00222607 0)
(-0.00826143 0.00239257 0)
(-0.00964645 0.00254284 0)
(-0.011108 0.00267695 0)
(-0.0126377 0.00279518 0)
(-0.0142274 0.00289794 0)
(-0.0158691 0.00298574 0)
(-0.0175551 0.0030592 0)
(-0.0192777 0.00311896 0)
(-0.0210299 0.00316573 0)
(-0.0228048 0.00320023 0)
(-0.024596 0.00322319 0)
(-0.0263974 0.00323538 0)
(-0.0282033 0.00323753 0)
(-0.0300083 0.00323038 0)
(-0.0318077 0.00321465 0)
(-0.0335968 0.00319107 0)
(-0.0353715 0.0031603 0)
(-0.037128 0.00312304 0)
(-0.0388627 0.0030799 0)
(-0.0405727 0.00303153 0)
(-0.0422551 0.00297849 0)
(-0.0439074 0.00292135 0)
(-0.0455275 0.00286064 0)
(-0.0471135 0.00279687 0)
(-0.0486637 0.00273049 0)
(-0.0501768 0.00266196 0)
(-0.0516516 0.00259167 0)
(-0.0530872 0.00252002 0)
(-0.0544829 0.00244735 0)
(-0.0558382 0.00237399 0)
(-0.0571527 0.00230024 0)
(-0.0584263 0.00222636 0)
(-0.0596587 0.0021526 0)
(-0.0608503 0.00207918 0)
(-0.062001 0.00200629 0)
(-0.0631114 0.00193411 0)
(-0.0641816 0.0018628 0)
(-0.0652122 0.00179247 0)
(-0.0662038 0.00172325 0)
(-0.067157 0.00165522 0)
(-0.0680723 0.00158847 0)
(-0.0689506 0.00152305 0)
(-0.0697924 0.001459 0)
(-0.0705986 0.00139635 0)
(-0.07137 0.00133513 0)
(-0.0721072 0.00127532 0)
(-0.072811 0.00121692 0)
(-0.0734822 0.00115991 0)
(-0.0741216 0.00110426 0)
(-0.0747298 0.00104992 0)
(-0.0753076 0.000996846 0)
(-0.0758557 0.000944978 0)
(-0.0763745 0.000894247 0)
(-0.0768649 0.000844579 0)
(-0.0773272 0.000795894 0)
(-0.0777621 0.000748103 0)
(-0.07817 0.000701113 0)
(-0.0785513 0.000654827 0)
(-0.0789063 0.000609141 0)
(-0.0792354 0.000563946 0)
(-0.0795387 0.000519132 0)
(-0.0798165 0.000474583 0)
(-0.0800689 0.000430181 0)
(-0.0802959 0.000385804 0)
(-0.0804974 0.000341329 0)
(-0.0806735 0.00029663 0)
(-0.0808238 0.00025158 0)
(-0.0809483 0.00020605 0)
(-0.0810466 0.00015991 0)
(-0.0811183 0.000113032 0)
(-0.0811629 6.52861e-05 0)
(-0.0811801 1.6542e-05 0)
(-0.0811691 -3.33277e-05 0)
(-0.0811293 -8.44495e-05 0)
(-0.08106 -0.000136947 0)
(-0.0809605 -0.000190942 0)
(-0.0808298 -0.000246552 0)
(-0.0806671 -0.00030389 0)
(-0.0804713 -0.000363065 0)
(-0.0802415 -0.00042418 0)
(-0.0799766 -0.000487331 0)
(-0.0796754 -0.000552607 0)
(-0.0793367 -0.000620086 0)
(-0.0789593 -0.00068984 0)
(-0.0785421 -0.000761928 0)
(-0.0780836 -0.000836399 0)
(-0.0775826 -0.000913286 0)
(-0.0770378 -0.00099261 0)
(-0.076448 -0.00107438 0)
(-0.0758116 -0.00115857 0)
(-0.0751276 -0.00124517 0)
(-0.0743945 -0.00133411 0)
(-0.0736113 -0.00142534 0)
(-0.0727766 -0.00151874 0)
(-0.0718893 -0.00161422 0)
(-0.0709485 -0.00171162 0)
(-0.0699531 -0.00181076 0)
(-0.0689024 -0.00191147 0)
(-0.0677955 -0.0020135 0)
(-0.0666318 -0.00211659 0)
(-0.065411 -0.00222046 0)
(-0.0641327 -0.00232478 0)
(-0.0627969 -0.00242919 0)
(-0.0614037 -0.0025333 0)
(-0.0599535 -0.00263668 0)
(-0.0584468 -0.00273886 0)
(-0.0568845 -0.00283935 0)
(-0.0552677 -0.0029376 0)
(-0.053598 -0.00303305 0)
(-0.0518771 -0.00312509 0)
(-0.050107 -0.00321308 0)
(-0.0482904 -0.00329634 0)
(-0.04643 -0.00337417 0)
(-0.0445291 -0.00344583 0)
(-0.0425913 -0.00351057 0)
(-0.0406206 -0.0035676 0)
(-0.0386216 -0.00361611 0)
(-0.0365992 -0.00365528 0)
(-0.0345588 -0.00368428 0)
(-0.0325061 -0.00370227 0)
(-0.0304474 -0.00370839 0)
(-0.0283895 -0.00370181 0)
(-0.0263393 -0.0036817 0)
(-0.0243046 -0.00364723 0)
(-0.0222932 -0.00359763 0)
(-0.0203136 -0.00353213 0)
(-0.0183743 -0.00345004 0)
(-0.0164845 -0.00335071 0)
(-0.0146534 -0.00323357 0)
(-0.0128905 -0.00309818 0)
(-0.0112055 -0.00294418 0)
(-0.00960809 -0.00277143 0)
(-0.00810785 -0.00257997 0)
(-0.00671419 -0.00237012 0)
(-0.00543614 -0.00214258 0)
(-0.00428205 -0.00189854 0)
(-0.00325937 -0.00163985 0)
(-0.0023742 -0.00136927 0)
(-0.00163082 -0.00109085 0)
(-0.00103104 -0.000810385 0)
(-0.000573373 -0.000536144 0)
(-0.000252039 -0.000279882 0)
(-5.58604e-05 -5.81598e-05 0)
(3.31813e-05 0.000106121 0)
(4.35612e-05 0.000181853 0)
(1.67346e-05 0.000125133 0)
(8.69566e-06 -0.000131045 0)
(4.49222e-06 -0.000164813 0)
(-6.0743e-05 -4.0699e-05 0)
(-0.000218725 0.000191255 0)
(-0.000492956 0.0004952 0)
(-0.000899416 0.000843887 0)
(-0.00144817 0.00121686 0)
(-0.00214447 0.00159904 0)
(-0.00298964 0.00197943 0)
(-0.00398189 0.00235009 0)
(-0.005117 0.00270533 0)
(-0.00638889 0.00304119 0)
(-0.00779011 0.00335497 0)
(-0.00931223 0.00364496 0)
(-0.0109461 0.00391014 0)
(-0.0126823 0.00415007 0)
(-0.0145109 0.00436474 0)
(-0.0164222 0.00455442 0)
(-0.0184065 0.00471968 0)
(-0.020454 0.00486124 0)
(-0.0225556 0.00497998 0)
(-0.0247021 0.00507688 0)
(-0.0268849 0.005153 0)
(-0.0290957 0.00520946 0)
(-0.0313267 0.00524739 0)
(-0.0335705 0.00526796 0)
(-0.0358199 0.00527234 0)
(-0.0380687 0.00526169 0)
(-0.0403107 0.00523716 0)
(-0.0425403 0.00519987 0)
(-0.0447524 0.00515093 0)
(-0.0469422 0.0050914 0)
(-0.0491055 0.0050223 0)
(-0.0512383 0.00494464 0)
(-0.0533374 0.00485934 0)
(-0.0553994 0.00476732 0)
(-0.0574218 0.00466943 0)
(-0.0594021 0.00456647 0)
(-0.0613383 0.00445921 0)
(-0.0632286 0.00434836 0)
(-0.0650716 0.00423458 0)
(-0.0668661 0.00411849 0)
(-0.0686112 0.00400067 0)
(-0.0703062 0.00388165 0)
(-0.0719506 0.0037619 0)
(-0.0735441 0.00364186 0)
(-0.0750867 0.00352195 0)
(-0.0765783 0.00340252 0)
(-0.0780192 0.00328388 0)
(-0.0794098 0.00316633 0)
(-0.0807504 0.00305011 0)
(-0.0820417 0.00293544 0)
(-0.0832843 0.00282251 0)
(-0.0844789 0.00271147 0)
(-0.0856262 0.00260244 0)
(-0.0867272 0.00249552 0)
(-0.0877827 0.00239079 0)
(-0.0887936 0.0022883 0)
(-0.0897608 0.00218808 0)
(-0.0906852 0.00209012 0)
(-0.0915678 0.00199442 0)
(-0.0924094 0.00190095 0)
(-0.0932111 0.00180964 0)
(-0.0939736 0.00172045 0)
(-0.0946978 0.00163329 0)
(-0.0953846 0.00154806 0)
(-0.0960347 0.00146465 0)
(-0.0966489 0.00138296 0)
(-0.0972277 0.00130284 0)
(-0.097772 0.00122415 0)
(-0.0982821 0.00114676 0)
(-0.0987587 0.00107049 0)
(-0.0992021 0.000995183 0)
(-0.0996127 0.000920665 0)
(-0.0999908 0.000846755 0)
(-0.100337 0.000773267 0)
(-0.10065 0.00070001 0)
(-0.100932 0.000626789 0)
(-0.101181 0.000553403 0)
(-0.101398 0.000479651 0)
(-0.101583 0.000405326 0)
(-0.101735 0.000330221 0)
(-0.101854 0.000254127 0)
(-0.101939 0.000176837 0)
(-0.10199 9.81407e-05 0)
(-0.102006 1.78309e-05 0)
(-0.101987 -6.42986e-05 0)
(-0.101931 -0.000148451 0)
(-0.101839 -0.000234825 0)
(-0.101708 -0.000323615 0)
(-0.101538 -0.000415009 0)
(-0.101328 -0.00050919 0)
(-0.101076 -0.000606331 0)
(-0.100781 -0.000706594 0)
(-0.100443 -0.000810134 0)
(-0.100058 -0.00091709 0)
(-0.0996274 -0.00102759 0)
(-0.0991479 -0.00114174 0)
(-0.0986185 -0.00125963 0)
(-0.0980375 -0.00138135 0)
(-0.0974035 -0.00150693 0)
(-0.0967149 -0.00163642 0)
(-0.0959699 -0.00176981 0)
(-0.0951671 -0.00190708 0)
(-0.0943049 -0.00204818 0)
(-0.0933817 -0.00219301 0)
(-0.0923961 -0.00234147 0)
(-0.0913466 -0.00249339 0)
(-0.0902319 -0.00264858 0)
(-0.0890507 -0.0028068 0)
(-0.0878018 -0.00296777 0)
(-0.0864844 -0.00313117 0)
(-0.0850974 -0.00329662 0)
(-0.0836403 -0.0034637 0)
(-0.0821125 -0.00363193 0)
(-0.0805137 -0.00380079 0)
(-0.0788439 -0.0039697 0)
(-0.0771032 -0.00413801 0)
(-0.0752923 -0.00430504 0)
(-0.0734118 -0.00447002 0)
(-0.0714628 -0.00463216 0)
(-0.0694469 -0.00479058 0)
(-0.0673659 -0.00494436 0)
(-0.065222 -0.00509253 0)
(-0.0630178 -0.00523405 0)
(-0.0607565 -0.00536784 0)
(-0.0584416 -0.00549277 0)
(-0.0560771 -0.00560766 0)
(-0.0536676 -0.0057113 0)
(-0.0512179 -0.00580242 0)
(-0.0487337 -0.00587975 0)
(-0.0462211 -0.00594198 0)
(-0.0436865 -0.00598778 0)
(-0.0411372 -0.00601581 0)
(-0.0385808 -0.00602474 0)
(-0.0360255 -0.00601324 0)
(-0.0334799 -0.00598001 0)
(-0.0309533 -0.00592377 0)
(-0.0284554 -0.00584332 0)
(-0.0259962 -0.00573749 0)
(-0.0235862 -0.00560522 0)
(-0.0212364 -0.00544555 0)
(-0.0189578 -0.00525769 0)
(-0.0167619 -0.00504098 0)
(-0.0146601 -0.00479503 0)
(-0.0126638 -0.00451971 0)
(-0.0107844 -0.00421526 0)
(-0.00903295 -0.00388238 0)
(-0.00741978 -0.00352238 0)
(-0.00595454 -0.00313736 0)
(-0.00464568 -0.00273043 0)
(-0.00350006 -0.00230611 0)
(-0.00252245 -0.00187077 0)
(-0.00171486 -0.00143325 0)
(-0.00107583 -0.00100576 0)
(-0.00059955 -0.000605048 0)
(-0.000274824 -0.000253876 0)
(-8.38832e-05 1.72832e-05 0)
(-8.53367e-07 0.00016811 0)
(8.73807e-06 0.000141871 0)
(6.67408e-07 -0.000125845 0)
(-4.10611e-05 -0.000102887 0)
(-0.000181032 0.000112738 0)
(-0.000441992 0.000461981 0)
(-0.000843345 0.00090188 0)
(-0.00139966 0.00139911 0)
(-0.00212004 0.00192805 0)
(-0.003009 0.00246932 0)
(-0.00406735 0.00300842 0)
(-0.00529279 0.00353456 0)
(-0.00668054 0.00403987 0)
(-0.00822387 0.00451867 0)
(-0.00991455 0.00496701 0)
(-0.0117432 0.00538225 0)
(-0.0136997 0.00576278 0)
(-0.0157733 0.00610779 0)
(-0.0179532 0.00641706 0)
(-0.0202281 0.00669087 0)
(-0.0225871 0.00692987 0)
(-0.0250192 0.007135 0)
(-0.0275137 0.0073074 0)
(-0.0300603 0.00744841 0)
(-0.0326489 0.00755948 0)
(-0.0352701 0.00764215 0)
(-0.0379148 0.00769801 0)
(-0.0405743 0.00772871 0)
(-0.0432405 0.0077359 0)
(-0.0459059 0.00772122 0)
(-0.0485634 0.00768633 0)
(-0.0512064 0.00763282 0)
(-0.0538289 0.00756227 0)
(-0.0564254 0.00747623 0)
(-0.0589909 0.00737616 0)
(-0.0615207 0.00726351 0)
(-0.0640107 0.00713963 0)
(-0.0664574 0.00700584 0)
(-0.0688575 0.00686338 0)
(-0.071208 0.00671341 0)
(-0.0735067 0.00655706 0)
(-0.0757514 0.00639535 0)
(-0.0779404 0.00622926 0)
(-0.0800722 0.00605969 0)
(-0.0821458 0.00588749 0)
(-0.0841602 0.00571342 0)
(-0.0861148 0.0055382 0)
(-0.0880094 0.00536246 0)
(-0.0898437 0.00518681 0)
(-0.0916177 0.00501176 0)
(-0.0933318 0.0048378 0)
(-0.0949862 0.00466534 0)
(-0.0965815 0.00449476 0)
(-0.0981183 0.00432636 0)
(-0.0995973 0.00416044 0)
(-0.101019 0.00399721 0)
(-0.102385 0.00383686 0)
(-0.103696 0.00367955 0)
(-0.104953 0.00352538 0)
(-0.106157 0.00337443 0)
(-0.107308 0.00322674 0)
(-0.108409 0.00308233 0)
(-0.10946 0.00294118 0)
(-0.110462 0.00280324 0)
(-0.111417 0.00266844 0)
(-0.112324 0.0025367 0)
(-0.113186 0.00240789 0)
(-0.114004 0.00228188 0)
(-0.114777 0.00215851 0)
(-0.115508 0.00203762 0)
(-0.116196 0.00191902 0)
(-0.116842 0.00180249 0)
(-0.117448 0.00168783 0)
(-0.118014 0.0015748 0)
(-0.11854 0.00146316 0)
(-0.119026 0.00135266 0)
(-0.119474 0.00124304 0)
(-0.119883 0.00113403 0)
(-0.120253 0.00102534 0)
(-0.120585 0.000916703 0)
(-0.120878 0.000807819 0)
(-0.121132 0.000698394 0)
(-0.121347 0.00058813 0)
(-0.121524 0.000476727 0)
(-0.12166 0.000363881 0)
(-0.121756 0.000249288 0)
(-0.121811 0.000132646 0)
(-0.121825 1.36543e-05 0)
(-0.121796 -0.000107986 0)
(-0.121724 -0.00023257 0)
(-0.121607 -0.000360385 0)
(-0.121444 -0.000491712 0)
(-0.121235 -0.000626823 0)
(-0.120978 -0.000765981 0)
(-0.120671 -0.000909435 0)
(-0.120313 -0.00105742 0)
(-0.119903 -0.00121016 0)
(-0.119438 -0.00136784 0)
(-0.118918 -0.00153066 0)
(-0.11834 -0.00169876 0)
(-0.117702 -0.00187228 0)
(-0.117004 -0.00205133 0)
(-0.116242 -0.00223596 0)
(-0.115416 -0.00242622 0)
(-0.114523 -0.00262211 0)
(-0.113562 -0.00282359 0)
(-0.11253 -0.00303058 0)
(-0.111427 -0.00324293 0)
(-0.110249 -0.00346048 0)
(-0.108996 -0.003683 0)
(-0.107666 -0.00391017 0)
(-0.106258 -0.00414167 0)
(-0.10477 -0.00437708 0)
(-0.103201 -0.00461591 0)
(-0.10155 -0.00485762 0)
(-0.0998168 -0.00510158 0)
(-0.0980004 -0.00534711 0)
(-0.0961006 -0.00559342 0)
(-0.0941173 -0.00583968 0)
(-0.0920509 -0.00608494 0)
(-0.0899019 -0.0063282 0)
(-0.0876714 -0.00656835 0)
(-0.0853607 -0.00680423 0)
(-0.0829716 -0.00703458 0)
(-0.0805062 -0.00725805 0)
(-0.0779672 -0.00747322 0)
(-0.0753577 -0.0076786 0)
(-0.0726814 -0.00787263 0)
(-0.0699425 -0.00805366 0)
(-0.0671456 -0.00822 0)
(-0.0642962 -0.00836989 0)
(-0.0614 -0.00850152 0)
(-0.0584635 -0.00861305 0)
(-0.0554938 -0.00870259 0)
(-0.0524986 -0.00876825 0)
(-0.0494861 -0.0088081 0)
(-0.0464654 -0.00882026 0)
(-0.0434458 -0.00880284 0)
(-0.0404375 -0.00875399 0)
(-0.0374511 -0.00867193 0)
(-0.0344977 -0.00855494 0)
(-0.0315891 -0.00840145 0)
(-0.0287372 -0.00820998 0)
(-0.0259546 -0.00797926 0)
(-0.0232539 -0.00770823 0)
(-0.0206481 -0.00739611 0)
(-0.0181503 -0.00704244 0)
(-0.0157734 -0.00664723 0)
(-0.0135301 -0.006211 0)
(-0.0114327 -0.00573496 0)
(-0.00949294 -0.00522116 0)
(-0.0077214 -0.0046728 0)
(-0.00612744 -0.00409448 0)
(-0.00471868 -0.00349264 0)
(-0.00350048 -0.00287616 0)
(-0.0024754 -0.00225705 0)
(-0.00164256 -0.00165146 0)
(-0.000996911 -0.00108088 0)
(-0.000528341 -0.000573806 0)
(-0.000220675 -0.000167396 0)
(-5.27541e-05 9.02585e-05 0)
(-4.35098e-07 0.000132711 0)
(-7.72385e-06 -9.578e-05 0)
(-8.99882e-05 2.18471e-05 0)
(-0.000311401 0.000359962 0)
(-0.000684118 0.000853177 0)
(-0.0012222 0.00145287 0)
(-0.00193792 0.00212059 0)
(-0.00283859 0.00282616 0)
(-0.00392742 0.0035463 0)
(-0.00520418 0.00426315 0)
(-0.00666577 0.00496319 0)
(-0.00830667 0.0056363 0)
(-0.0101194 0.00627505 0)
(-0.0120949 0.00687413 0)
(-0.0142229 0.0074299 0)
(-0.0164925 0.00794006 0)
(-0.0188919 0.00840332 0)
(-0.0214092 0.00881925 0)
(-0.0240321 0.00918803 0)
(-0.0267484 0.00951041 0)
(-0.0295461 0.00978749 0)
(-0.0324133 0.0100207 0)
(-0.0353386 0.0102118 0)
(-0.0383107 0.0103625 0)
(-0.0413191 0.0104749 0)
(-0.0443536 0.0105511 0)
(-0.0474045 0.0105933 0)
(-0.0504627 0.0106036 0)
(-0.0535196 0.0105842 0)
(-0.0565673 0.0105373 0)
(-0.0595985 0.010465 0)
(-0.0626062 0.0103696 0)
(-0.0655842 0.0102529 0)
(-0.0685268 0.0101171 0)
(-0.0714288 0.00996411 0)
(-0.0742854 0.0097957 0)
(-0.0770926 0.00961366 0)
(-0.0798467 0.0094197 0)
(-0.0825443 0.00921539 0)
(-0.0851828 0.00900225 0)
(-0.0877597 0.00878169 0)
(-0.0902729 0.00855503 0)
(-0.0927209 0.00832351 0)
(-0.0951023 0.00808828 0)
(-0.0974161 0.00785038 0)
(-0.0996616 0.0076108 0)
(-0.101838 0.00737041 0)
(-0.103946 0.00713003 0)
(-0.105985 0.00689037 0)
(-0.107955 0.00665209 0)
(-0.109857 0.00641577 0)
(-0.111691 0.00618192 0)
(-0.113458 0.00595098 0)
(-0.115159 0.00572332 0)
(-0.116794 0.00549927 0)
(-0.118365 0.00527909 0)
(-0.119873 0.00506298 0)
(-0.121319 0.0048511 0)
(-0.122703 0.00464356 0)
(-0.124028 0.00444041 0)
(-0.125294 0.00424169 0)
(-0.126503 0.00404737 0)
(-0.127655 0.00385739 0)
(-0.128753 0.00367166 0)
(-0.129796 0.00349006 0)
(-0.130787 0.00331243 0)
(-0.131727 0.00313859 0)
(-0.132615 0.00296834 0)
(-0.133454 0.00280143 0)
(-0.134244 0.00263762 0)
(-0.134986 0.00247663 0)
(-0.135681 0.00231816 0)
(-0.13633 0.0021619 0)
(-0.136932 0.00200752 0)
(-0.137489 0.00185469 0)
(-0.138001 0.00170304 0)
(-0.138468 0.0015522 0)
(-0.13889 0.00140181 0)
(-0.139267 0.00125148 0)
(-0.1396 0.0011008 0)
(-0.139888 0.000949384 0)
(-0.140131 0.000796822 0)
(-0.140328 0.000642705 0)
(-0.140479 0.000486623 0)
(-0.140584 0.000328164 0)
(-0.140641 0.000166917 0)
(-0.140651 2.47316e-06 0)
(-0.140611 -0.00016557 0)
(-0.140521 -0.000337612 0)
(-0.140379 -0.000514042 0)
(-0.140185 -0.000695241 0)
(-0.139937 -0.000881575 0)
(-0.139634 -0.0010734 0)
(-0.139273 -0.00127105 0)
(-0.138854 -0.00147483 0)
(-0.138374 -0.00168506 0)
(-0.137832 -0.00190199 0)
(-0.137226 -0.00212586 0)
(-0.136554 -0.00235688 0)
(-0.135814 -0.00259523 0)
(-0.135003 -0.00284104 0)
(-0.134121 -0.0030944 0)
(-0.133164 -0.00335535 0)
(-0.132131 -0.00362389 0)
(-0.131019 -0.00389995 0)
(-0.129827 -0.00418343 0)
(-0.128553 -0.00447412 0)
(-0.127195 -0.00477179 0)
(-0.12575 -0.0050761 0)
(-0.124217 -0.00538665 0)
(-0.122595 -0.00570297 0)
(-0.120883 -0.00602449 0)
(-0.119078 -0.00635054 0)
(-0.11718 -0.00668037 0)
(-0.115188 -0.00701314 0)
(-0.113101 -0.0073479 0)
(-0.110919 -0.00768359 0)
(-0.108643 -0.00801905 0)
(-0.106272 -0.00835302 0)
(-0.103808 -0.00868412 0)
(-0.10125 -0.00901086 0)
(-0.0986022 -0.00933164 0)
(-0.0958649 -0.00964475 0)
(-0.0930411 -0.00994837 0)
(-0.0901338 -0.0102406 0)
(-0.0871466 -0.0105194 0)
(-0.0840836 -0.0107826 0)
(-0.0809497 -0.0110281 0)
(-0.07775 -0.0112535 0)
(-0.0744907 -0.0114565 0)
(-0.0711784 -0.0116347 0)
(-0.0678203 -0.0117855 0)