/*--------------------------------*- C++ -*----------------------------------*\
  =========                 |
  \\      /  F ield         | OpenFOAM: The Open Source CFD Toolbox
   \\    /   O peration     | Website:  https://openfoam.org
    \\  /    A nd           | Version:  7
     \\/     M anipulation  |
\*---------------------------------------------------------------------------*/
FoamFile
{
    version     2.0;
    format      ascii;
    class       volScalarField;
    location    "0.2";
    object      p;
}
// * * * * * * * * * * * * * * * * * * * * * * * * * * * * * * * * * * * * * //

dimensions      [0 2 -2 0 0 0 0];

internalField   nonuniform List<scalar> 
12800
(
-8.12446e-08
0.000182027
-0.00090273
-0.00334601
-0.0069033
-0.0113275
-0.0163853
-0.0218633
-0.0275749
-0.0333598
-0.0390818
-0.0446256
-0.0498938
-0.0548052
-0.0592916
-0.0632971
-0.0667759
-0.0696912
-0.0720144
-0.0737234
-0.0748026
-0.0752416
-0.0750345
-0.0741798
-0.0726793
-0.0705381
-0.0677638
-0.0643663
-0.0603576
-0.0557511
-0.0505619
-0.0448059
-0.0385
-0.031662
-0.0243098
-0.0164621
-0.00813743
0.000645318
0.00986744
0.0195104
0.0295557
0.0399855
0.050782
0.061928
0.0734067
0.0852017
0.0972974
0.109679
0.122331
0.13524
0.148393
0.161776
0.175378
0.189188
0.203194
0.217386
0.231754
0.24629
0.260984
0.275829
0.290817
0.305942
0.321196
0.336574
0.352071
0.36768
0.383398
0.399219
0.415141
0.431159
0.447269
0.463469
0.479756
0.496127
0.512578
0.529109
0.545717
0.562398
0.579152
0.595976
0.612868
0.629826
0.646848
0.66393
0.681071
0.698268
0.715517
0.732816
0.750162
0.767549
0.784975
0.802434
0.819921
0.837431
0.854958
0.872494
0.890033
0.907566
0.925085
0.942581
0.960042
0.977458
0.994818
1.01211
1.02931
1.04642
1.06342
1.08028
1.097
1.11355
1.12992
1.14608
1.16201
1.17769
1.1931
1.20821
1.223
1.23744
1.2515
1.26516
1.27839
1.29116
1.30344
1.31521
1.32644
1.33709
1.34714
1.35656
1.36533
1.37341
1.38079
1.38745
1.39335
1.39849
1.40284
1.4064
1.40915
1.4111
1.41222
1.41254
1.41206
1.41079
1.40875
1.40597
1.4025
1.39836
1.39363
1.38837
1.38266
1.37659
1.37028
1.36386
1.3575
1.35136
1.34567
1.34067
1.33662
1.33381
1.33253
1.3327
-0.000181863
1.22868e-06
-0.00100106
-0.00313275
-0.0061701
-0.00993743
-0.014261
-0.0189701
-0.0239083
-0.0289362
-0.0339319
-0.0387892
-0.0434169
-0.0477374
-0.0516845
-0.055203
-0.0582468
-0.0607786
-0.0627681
-0.0641918
-0.0650321
-0.0652764
-0.0649166
-0.0639487
-0.0623723
-0.06019
-0.0574069
-0.0540307
-0.0500709
-0.0455387
-0.0404468
-0.0348092
-0.0286406
-0.0219567
-0.0147738
-0.00710844
0.00102228
0.0096012
0.0186111
0.0280348
0.0378554
0.0480559
0.0586199
0.0695311
0.0807737
0.0923322
0.104192
0.116338
0.128757
0.141435
0.154359
0.167518
0.180898
0.19449
0.208282
0.222265
0.236428
0.250763
0.265261
0.279915
0.294716
0.309658
0.324734
0.339938
0.355265
0.370708
0.386263
0.401926
0.417692
0.433557
0.449517
0.465569
0.481709
0.497935
0.514244
0.530632
0.547097
0.563637
0.580248
0.59693
0.613677
0.630489
0.647363
0.664295
0.681283
0.698324
0.715414
0.732549
0.749727
0.766941
0.784189
0.801464
0.818762
0.836076
0.853401
0.870728
0.88805
0.90536
0.922648
0.939904
0.957119
0.974281
0.991379
1.0084
1.02533
1.04215
1.05885
1.07542
1.09183
1.10807
1.12412
1.13995
1.15556
1.17091
1.18599
1.20076
1.21521
1.22932
1.24305
1.25638
1.26929
1.28175
1.29373
1.3052
1.31614
1.32653
1.33633
1.34552
1.35408
1.36199
1.36921
1.37574
1.38156
1.38664
1.39098
1.39456
1.39738
1.39943
1.40072
1.40125
1.40104
1.40009
1.39843
1.39609
1.39312
1.38954
1.38543
1.38085
1.37587
1.37059
1.36512
1.35957
1.35409
1.34883
1.34399
1.33974
1.3363
1.33387
1.33269
1.33286
0.000902348
0.00100562
2.29393e-06
-0.00198158
-0.0047308
-0.00810307
-0.0119582
-0.0161545
-0.0205586
-0.025049
-0.0295167
-0.0338656
-0.0380112
-0.0418804
-0.0454103
-0.0485477
-0.0512475
-0.0534726
-0.0551925
-0.0563831
-0.0570258
-0.0571066
-0.0566161
-0.0555488
-0.0539026
-0.0516783
-0.0488795
-0.0455119
-0.0415834
-0.0371033
-0.0320827
-0.0265339
-0.02047
-0.0139051
-0.00685396
0.000668203
0.00864575
0.0170628
0.0259034
0.0351514
0.0447911
0.0548066
0.0651823
0.0759027
0.086953
0.0983183
0.109984
0.121938
0.134164
0.146652
0.159387
0.172359
0.185556
0.198966
0.21258
0.226387
0.240379
0.254545
0.268879
0.283371
0.298014
0.312802
0.327727
0.342783
0.357965
0.373267
0.388684
0.40421
0.419842
0.435576
0.451407
0.467331
0.483346
0.499447
0.515631
0.531896
0.548239
0.564655
0.581144
0.597701
0.614324
0.63101
0.647756
0.664559
0.681415
0.698321
0.715273
0.732268
0.749301
0.766368
0.783463
0.800582
0.817718
0.834866
0.852019
0.869169
0.886309
0.90343
0.920524
0.93758
0.954589
0.971538
0.988417
1.00521
1.02191
1.0385
1.05496
1.07128
1.08744
1.10342
1.11921
1.13478
1.15012
1.1652
1.18001
1.19452
1.2087
1.22254
1.236
1.24907
1.26173
1.27393
1.28567
1.29691
1.30763
1.31781
1.32742
1.33643
1.34484
1.3526
1.35971
1.36615
1.3719
1.37695
1.38128
1.38489
1.38777
1.38993
1.39136
1.39206
1.39207
1.39138
1.39002
1.38804
1.38545
1.38231
1.37868
1.37461
1.37019
1.36549
1.36062
1.35568
1.35081
1.34615
1.34184
1.33806
1.33495
1.33269
1.33152
1.33158
0.0033483
0.00314117
0.0019848
-4.35979e-06
-0.00264703
-0.00581958
-0.00940215
-0.013274
-0.0173204
-0.0214352
-0.0255219
-0.0294936
-0.0332734
-0.0367936
-0.0399955
-0.0428286
-0.0452499
-0.0472233
-0.0487193
-0.0497136
-0.0501873
-0.0501261
-0.0495198
-0.0483621
-0.0466496
-0.0443821
-0.0415618
-0.0381932
-0.0342828
-0.0298388
-0.0248707
-0.0193896
-0.0134073
-0.00693665
8.88324e-06
0.00741522
0.0152679
0.023552
0.0322527
0.041355
0.0508439
0.0607044
0.0709217
0.0814812
0.0923685
0.10357
0.115071
0.126859
0.138921
0.151245
0.163817
0.176628
0.189665
0.202918
0.216376
0.230031
0.243872
0.257891
0.272079
0.286429
0.300933
0.315584
0.330375
0.3453
0.360353
0.375528
0.39082
0.406225
0.421737
0.437352
0.453066
0.468876
0.484776
0.500764
0.516836
0.532989
0.54922
0.565525
0.581901
0.598346
0.614856
0.631427
0.648057
0.664742
0.681479
0.698263
0.715092
0.73196
0.748863
0.765796
0.782755
0.799734
0.816726
0.833726
0.850726
0.86772
0.884699
0.901654
0.918577
0.935458
0.952286
0.969051
0.98574
1.00234
1.01884
1.03522
1.05148
1.06759
1.08353
1.0993
1.11486
1.13021
1.14532
1.16018
1.17476
1.18904
1.203
1.21661
1.22986
1.24271
1.25515
1.26716
1.27869
1.28975
1.30029
1.3103
1.31976
1.32863
1.33691
1.34457
1.3516
1.35797
1.36368
1.3687
1.37304
1.37668
1.37963
1.38187
1.38342
1.38428
1.38446
1.38399
1.38289
1.38119
1.37891
1.37612
1.37286
1.36919
1.36518
1.36091
1.35647
1.35197
1.34751
1.34322
1.33923
1.33567
1.33269
1.33043
1.32908
1.32878
0.00691825
0.00619058
0.00473747
0.0026263
-2.70037e-05
-0.00311641
-0.0065389
-0.0101927
-0.01398
-0.017809
-0.0215951
-0.025261
-0.0287375
-0.031963
-0.0348834
-0.0374516
-0.0396273
-0.0413763
-0.0426701
-0.0434852
-0.0438028
-0.0436088
-0.0428924
-0.0416469
-0.0398683
-0.0375553
-0.0347093
-0.0313337
-0.0274339
-0.0230171
-0.0180917
-0.0126676
-0.00675537
-0.000366829
0.00648564
0.013789
0.0215299
0.0296943
0.0382685
0.0472382
0.0565894
0.0663078
0.0763795
0.0867904
0.097527
0.108576
0.119924
0.131558
0.143466
0.155636
0.168055
0.180714
0.1936
0.206704
0.220016
0.233525
0.247223
0.261101
0.275151
0.289365
0.303735
0.318254
0.332916
0.347714
0.362642
0.377695
0.392867
0.408153
0.423548
0.439048
0.454648
0.470344
0.486133
0.50201
0.517972
0.534015
0.550136
0.566332
0.582598
0.598932
0.61533
0.631789
0.648306
0.664876
0.681495
0.698161
0.714868
0.731612
0.748389
0.765193
0.782019
0.798862
0.815715
0.832572
0.849426
0.866268
0.883092
0.899889
0.916649
0.933363
0.95002
0.966609
0.983119
0.999536
1.01585
1.03204
1.0481
1.06401
1.07975
1.09531
1.11068
1.12582
1.14072
1.15537
1.16974
1.18382
1.19757
1.21098
1.22402
1.23668
1.24893
1.26075
1.27212
1.283
1.29339
1.30325
1.31257
1.32133
1.3295
1.33707
1.34402
1.35034
1.35602
1.36103
1.36538
1.36906
1.37207
1.3744
1.37606
1.37706
1.37742
1.37714
1.37626
1.37481
1.37281
1.37031
1.36737
1.36403
1.36036
1.35644
1.35235
1.34817
1.34401
1.33997
1.33616
1.3327
1.32971
1.32732
1.32563
1.32473
0.0113763
0.00998671
0.0081248
0.00579285
0.0030293
-7.65126e-05
-0.00343607
-0.00696487
-0.0105807
-0.014205
-0.0177644
-0.0211911
-0.0244236
-0.0274064
-0.0300906
-0.0324331
-0.0343964
-0.0359486
-0.0370629
-0.0377169
-0.0378926
-0.037576
-0.0367567
-0.0354275
-0.033584
-0.0312245
-0.0283496
-0.0249621
-0.0210665
-0.016669
-0.0117772
-0.00639981
-0.000546743
0.00577133
0.0125429
0.019756
0.027398
0.035456
0.0439168
0.0527673
0.0619941
0.0715836
0.0815227
0.0917979
0.102396
0.113305
0.124512
0.136004
0.147769
0.159796
0.172073
0.18459
0.197335
0.2103
0.223473
0.236845
0.250408
0.264153
0.278071
0.292156
0.306398
0.320792
0.335331
0.350007
0.364816
0.379751
0.394807
0.409979
0.425261
0.440649
0.456139
0.471726
0.487407
0.503176
0.519031
0.534967
0.550981
0.56707
0.583229
0.599455
0.615745
0.632095
0.6485
0.664958
0.681464
0.698014
0.714603
0.731228
0.747882
0.764561
0.78126
0.797972
0.814692
0.831412
0.848125
0.864824
0.881501
0.898147
0.914752
0.931308
0.947804
0.964228
0.980569
0.996814
1.01295
1.02897
1.04484
1.06057
1.07613
1.0915
1.10668
1.12163
1.13634
1.1508
1.16498
1.17887
1.19244
1.20566
1.21853
1.23101
1.2431
1.25475
1.26596
1.2767
1.28694
1.29668
1.30588
1.31454
1.32262
1.33012
1.33702
1.3433
1.34895
1.35396
1.35833
1.36205
1.36511
1.36753
1.3693
1.37043
1.37094
1.37084
1.37015
1.36891
1.36715
1.36491
1.36223
1.35916
1.35577
1.35212
1.34828
1.34433
1.34036
1.33647
1.33274
1.32927
1.32616
1.32351
1.32136
1.31971
0.0165014
0.0143647
0.0120136
0.00938144
0.00642443
0.0032171
-0.000164251
-0.00365067
-0.00717401
-0.0106679
-0.0140693
-0.0173194
-0.0203644
-0.0231551
-0.0256475
-0.0278029
-0.0295871
-0.0309708
-0.0319291
-0.0324411
-0.03249
-0.0320623
-0.0311481
-0.0297403
-0.0278343
-0.0254283
-0.0225223
-0.0191187
-0.0152213
-0.0108358
-0.00596879
-0.000628462
0.00517623
0.0114354
0.0181383
0.0252738
0.03283
0.0407949
0.0491561
0.0579011
0.0670172
0.0764917
0.0863118
0.0964649
0.106938
0.11772
0.128798
0.14016
0.151795
0.163691
0.175837
0.188223
0.200839
0.213673
0.226718
0.239963
0.2534
0.26702
0.280816
0.294778
0.308901
0.323177
0.337599
0.35216
0.366856
0.381679
0.396624
0.411687
0.426861
0.442143
0.457527
0.473009
0.488585
0.504251
0.520003
0.535836
0.551747
0.567732
0.583788
0.59991
0.616095
0.632339
0.648638
0.664987
0.681384
0.697823
0.714299
0.730809
0.747346
0.763906
0.780483
0.79707
0.813663
0.830253
0.846833
0.863397
0.879935
0.896439
0.9129
0.929308
0.945653
0.961923
0.978107
0.994194
1.01017
1.02602
1.04173
1.05729
1.07268
1.08788
1.10289
1.11767
1.13221
1.1465
1.16051
1.17423
1.18763
1.2007
1.21341
1.22574
1.23767
1.24919
1.26026
1.27087
1.281
1.29063
1.29974
1.30831
1.31632
1.32376
1.33061
1.33687
1.34251
1.34753
1.35192
1.35568
1.3588
1.3613
1.36316
1.36441
1.36505
1.36511
1.36459
1.36354
1.36197
1.35993
1.35746
1.35461
1.35143
1.34797
1.34431
1.34051
1.33665
1.3328
1.32905
1.32547
1.32215
1.31917
1.31647
1.31397
0.0220924
0.0191629
0.0162691
0.0132772
0.0100618
0.00668467
0.00321213
-0.000300738
-0.00379838
-0.00722538
-0.0105284
-0.0136572
-0.0165649
-0.0192086
-0.0215497
-0.0235534
-0.0251892
-0.0264307
-0.0272551
-0.0276434
-0.02758
-0.0270525
-0.0260515
-0.0245704
-0.0226047
-0.0201524
-0.0172138
-0.0137906
-0.00988634
-0.00550612
-0.000656178
0.00465609
0.0104223
0.0166332
0.0232788
0.0303486
0.0378314
0.0457159
0.0539904
0.062643
0.0716616
0.0810341
0.0907484
0.100792
0.111154
0.121821
0.132783
0.144028
0.155543
0.16732
0.179347
0.191613
0.204108
0.216823
0.229749
0.242876
0.256196
0.269701
0.283381
0.29723
0.311241
0.325405
0.339717
0.35417
0.368758
0.383475
0.398316
0.413275
0.428346
0.443526
0.458809
0.474191
0.489667
0.505234
0.520886
0.53662
0.552432
0.568318
0.584274
0.600296
0.61638
0.632522
0.648718
0.664964
0.681255
0.697588
0.713956
0.730355
0.746781
0.763227
0.779688
0.796157
0.812629
0.829096
0.845551
0.861987
0.878394
0.894766
0.911091
0.927362
0.943566
0.959694
0.975734
0.991674
1.0075
1.0232
1.03876
1.05417
1.0694
1.08445
1.0993
1.11393
1.12832
1.14246
1.15632
1.16989
1.18314
1.19607
1.20864
1.22084
1.23265
1.24404
1.255
1.2655
1.27554
1.28508
1.29411
1.30261
1.31057
1.31796
1.32479
1.33102
1.33666
1.34169
1.34611
1.34992
1.3531
1.35567
1.35763
1.35898
1.35974
1.35993
1.35956
1.35866
1.35725
1.35538
1.35308
1.35038
1.34735
1.34403
1.34048
1.33675
1.33292
1.32905
1.32519
1.32143
1.31782
1.31444
1.31114
1.30775
0.0279742
0.0242331
0.0207642
0.0173705
0.0138476
0.0102474
0.00662794
0.00303224
-0.000495347
-0.00390926
-0.00716501
-0.0102201
-0.0130346
-0.0155716
-0.0177972
-0.0196813
-0.0211968
-0.0223202
-0.0230311
-0.0233126
-0.0231506
-0.022534
-0.0214541
-0.0199048
-0.0178823
-0.0153846
-0.012412
-0.00896623
-0.00505058
-0.000669763
0.00417035
0.00946282
0.0151997
0.0213724
0.0279713
0.0349866
0.0424077
0.0502238
0.0584238
0.0669964
0.0759301
0.0852132
0.0948342
0.104781
0.115043
0.125609
0.136466
0.147605
0.159014
0.170682
0.182599
0.194756
0.207142
0.219748
0.232565
0.245583
0.258795
0.272192
0.285766
0.299509
0.313414
0.327475
0.341684
0.356035
0.370522
0.385139
0.399881
0.414741
0.429715
0.444798
0.459985
0.475271
0.490651
0.506123
0.52168
0.537319
0.553036
0.568827
0.584687
0.600613
0.6166
0.632645
0.648742
0.664888
0.681079
0.697309
0.713574
0.729868
0.746187
0.762525
0.778875
0.795233
0.81159
0.827942
0.844279
0.860594
0.87688
0.893127
0.909326
0.925469
0.941543
0.95754
0.973446
0.989252
1.00494
1.02051
1.03593
1.0512
1.06629
1.08121
1.09592
1.11041
1.12466
1.13866
1.15239
1.16583
1.17896
1.19177
1.20422
1.21631
1.22801
1.2393
1.25016
1.26058
1.27054
1.28001
1.28897
1.29743
1.30534
1.31271
1.31952
1.32575
1.33139
1.33644
1.3409
1.34474
1.34799
1.35063
1.35267
1.35411
1.35498
1.35528
1.35503
1.35426
1.35298
1.35124
1.34906
1.34648
1.34355
1.34031
1.33681
1.3331
1.32923
1.32527
1.32125
1.31724
1.31329
1.30946
1.30553
1.30124
0.0339956
0.0294427
0.0253824
0.0215586
0.0176926
0.0138286
0.0100181
0.00629391
0.0026904
-0.000755601
-0.00400758
-0.00703019
-0.00978988
-0.0122553
-0.0143976
-0.0161907
-0.0176111
-0.0186383
-0.0192545
-0.0194449
-0.0191971
-0.0185012
-0.0173498
-0.0157374
-0.0136608
-0.0111186
-0.008111
-0.00463993
-0.000708655
0.00367831
0.00851533
0.0137958
0.0195121
0.0256559
0.0322183
0.0391897
0.0465602
0.0543195
0.0624569
0.0709615
0.0798223
0.0890283
0.0985681
0.108431
0.118605
0.12908
0.139846
0.15089
0.162203
0.173774
0.185593
0.197651
0.209938
0.222444
0.235161
0.24808
0.261192
0.27449
0.287965
0.301611
0.315419
0.329383
0.343496
0.357752
0.372144
0.386667
0.401315
0.416083
0.430964
0.445955
0.461051
0.476246
0.491536
0.506916
0.522383
0.537931
0.553557
0.569257
0.585026
0.60086
0.616754
0.632705
0.648709
0.66476
0.680854
0.696987
0.713153
0.729347
0.745565
0.7618
0.778046
0.794297
0.810547
0.826789
0.843016
0.859219
0.87539
0.891522
0.907604
0.923628
0.939583
0.955458
0.971243
0.986925
1.00249
1.01793
1.03323
1.04837
1.06335
1.07814
1.09272
1.10709
1.12123
1.13512
1.14873
1.16206
1.17508
1.18778
1.20014
1.21213
1.22374
1.23495
1.24574
1.25609
1.26598
1.2754
1.28432
1.29274
1.30063
1.30798
1.31478
1.32101
1.32668
1.33175
1.33624
1.34014
1.34344
1.34615
1.34826
1.3498
1.35076
1.35116
1.35101
1.35034
1.34916
1.34752
1.34543
1.34292
1.34005
1.33684
1.33334
1.32959
1.32564
1.32153
1.3173
1.313
1.30867
1.30437
1.29978
1.29461
0.0400282
0.0346747
0.0300178
0.0257468
0.021513
0.0173548
0.0133193
0.00943013
0.00571324
0.00219771
-0.00108705
-0.00411224
-0.0068502
-0.00927483
-0.0113619
-0.0130892
-0.0144369
-0.0153876
-0.015926
-0.0160395
-0.0157174
-0.0149514
-0.0137352
-0.0120643
-0.00993625
-0.00735009
-0.0043065
-0.000807582
0.00314332
0.00754171
0.0123821
0.0176579
0.0233619
0.0294859
0.0360215
0.0429594
0.0502901
0.0580036
0.0660897
0.074538
0.0833378
0.0924784
0.101949
0.111739
0.121838
0.132234
0.142919
0.15388
0.165108
0.176593
0.188325
0.200294
0.212492
0.224908
0.237535
0.250364
0.263386
0.276593
0.289978
0.303533
0.317251
0.331126
0.34515
0.359317
0.373621
0.388056
0.402617
0.417297
0.432092
0.446997
0.462006
0.477115
0.492319
0.507613
0.522994
0.538456
0.553996
0.569608
0.58529
0.601036
0.616842
0.632704
0.648617
0.664578
0.68058
0.69662
0.712693
0.728792
0.744914
0.761051
0.777199
0.793351
0.8095
0.825639
0.841762
0.85786
0.873926
0.88995
0.905925
0.921839
0.937684
0.953449
0.969123
0.984693
1.00015
1.01548
1.03067
1.0457
1.06056
1.07524
1.08972
1.10399
1.11802
1.13181
1.14532
1.15856
1.17149
1.1841
1.19638
1.20829
1.21983
1.23098
1.24171
1.25201
1.26185
1.27124
1.28013
1.28853
1.29641
1.30376
1.31056
1.31681
1.3225
1.32761
1.33214
1.33609
1.33945
1.34222
1.34441
1.34602
1.34706
1.34754
1.34748
1.34689
1.34579
1.34422
1.34218
1.33972
1.33687
1.33365
1.33011
1.32628
1.3222
1.31791
1.31343
1.3088
1.30407
1.29928
1.29404
1.28799
0.0459612
0.0398256
0.0345753
0.0298483
0.0252306
0.0207567
0.0164704
0.0123878
0.00852756
0.00491195
0.00156407
-0.00149319
-0.00423753
-0.00664767
-0.00870369
-0.0103873
-0.0116821
-0.0125735
-0.013049
-0.0130981
-0.012712
-0.011884
-0.0106089
-0.00888355
-0.00670615
-0.0040765
-0.000995756
0.00253365
0.00650814
0.0109231
0.015773
0.0210514
0.0267511
0.0328642
0.0393824
0.0462968
0.053598
0.0612766
0.0693226
0.0777258
0.086476
0.0955629
0.104976
0.114705
0.124739
0.135069
0.145684
0.156573
0.167727
0.179137
0.190792
0.202683
0.214801
0.227138
0.239684
0.252431
0.265372
0.278497
0.2918
0.305273
0.318909
0.332702
0.346644
0.360729
0.374952
0.389305
0.403784
0.418383
0.433097
0.447921
0.462849
0.477876
0.492999
0.508212
0.523511
0.538892
0.554349
0.569879
0.585478
0.60114
0.616863
0.63264
0.648468
0.664342
0.680258
0.69621
0.712194
0.728203
0.744234
0.76028
0.776335
0.792393
0.808447
0.824491
0.840517
0.856518
0.872485
0.888411
0.904286
0.9201
0.935845
0.951509
0.967082
0.982553
0.997909
1.01314
1.02823
1.04316
1.05793
1.07252
1.0869
1.10108
1.11502
1.12872
1.14216
1.15532
1.16818
1.18072
1.19293
1.20479
1.21628
1.22737
1.23806
1.24833
1.25815
1.26751
1.27639
1.28478
1.29267
1.30002
1.30685
1.31312
1.31884
1.324
1.32857
1.33257
1.33599
1.33883
1.34109
1.34277
1.34388
1.34444
1.34444
1.34392
1.34288
1.34135
1.33934
1.33689
1.33403
1.33077
1.32716
1.32322
1.31898
1.31447
1.30971
1.30473
1.29958
1.2943
1.28841
1.28151
0.0516993
0.0448043
0.0389691
0.0337838
0.0287731
0.0239688
0.019413
0.0151154
0.0110883
0.00734803
0.00391222
0.000798482
-0.00197573
-0.00439357
-0.00643916
-0.00809793
-0.00935672
-0.0102039
-0.0106295
-0.010625
-0.0101838
-0.00930058
-0.00797174
-0.00619512
-0.00396997
-0.00129683
0.00182253
0.00538524
0.00938739
0.0138242
0.0186898
0.0239779
0.0296811
0.0357919
0.042302
0.0492026
0.0564847
0.0641389
0.0721555
0.0805248
0.0892367
0.0982812
0.107648
0.117328
0.127309
0.137583
0.148139
0.158968
0.170059
0.181404
0.192992
0.204816
0.216865
0.229131
0.241606
0.254281
0.267149
0.280201
0.29343
0.306829
0.320391
0.334108
0.347976
0.361986
0.376133
0.390412
0.404815
0.419339
0.433977
0.448725
0.463577
0.478529
0.493575
0.508712
0.523934
0.539237
0.554617
0.57007
0.58559
0.601173
0.616816
0.632513
0.64826
0.664053
0.679886
0.695755
0.711655
0.72758
0.743525
0.759485
0.775453
0.791423
0.807389
0.823344
0.83928
0.855191
0.871067
0.886902
0.902686
0.91841
0.934063
0.949637
0.96512
0.980501
0.995768
1.01091
1.02591
1.04076
1.05545
1.06995
1.08426
1.09836
1.11224
1.12587
1.13924
1.15234
1.16514
1.17763
1.18979
1.20161
1.21306
1.22412
1.23479
1.24504
1.25485
1.2642
1.27309
1.28149
1.28939
1.29677
1.30362
1.30994
1.3157
1.3209
1.32553
1.32959
1.33307
1.33597
1.33829
1.34004
1.34122
1.34184
1.3419
1.34142
1.34042
1.33891
1.33692
1.33446
1.33156
1.32824
1.32452
1.32044
1.31601
1.31126
1.30621
1.30087
1.29529
1.2895
1.28298
1.27527
0.0571597
0.0495303
0.0431225
0.0374812
0.0320736
0.0269301
0.0220917
0.0175631
0.0133511
0.00946691
0.00592331
0.00273329
-9.00795e-05
-0.00253402
-0.00458646
-0.00623627
-0.0074734
-0.00828899
-0.00867548
-0.00862664
-0.00813761
-0.00720488
-0.00582625
-0.00400079
-0.00172878
0.000988387
0.00414826
0.00774742
0.0117815
0.0162454
0.021133
0.0264379
0.0321527
0.0382697
0.0447807
0.0516773
0.0589503
0.0665905
0.0745886
0.0829349
0.0916196
0.100633
0.109965
0.119606
0.129546
0.139776
0.150284
0.161063
0.172102
0.183393
0.194925
0.206691
0.21868
0.230886
0.243299
0.255911
0.268715
0.281702
0.294866
0.308198
0.321693
0.335344
0.349144
0.363086
0.377165
0.391374
0.405709
0.420163
0.434731
0.449409
0.464191
0.479072
0.494047
0.509112
0.524262
0.539493
0.5548
0.570178
0.585624
0.601133
0.616701
0.632322
0.647993
0.663709
0.679464
0.695255
0.711076
0.726921
0.742786
0.758665
0.774552
0.79044
0.806324
0.822196
0.83805
0.853877
0.869671
0.885423
0.901124
0.916765
0.932337
0.947829
0.963232
0.978534
0.993723
1.00879
1.02372
1.0385
1.05311
1.06755
1.08179
1.09583
1.10965
1.12322
1.13655
1.1496
1.16236
1.17482
1.18695
1.19874
1.21017
1.22122
1.23188
1.24212
1.25194
1.26131
1.27021
1.27863
1.28656
1.29398
1.30088
1.30723
1.31305
1.3183
1.323
1.32712
1.33066
1.33363
1.33602
1.33783
1.33907
1.33974
1.33985
1.33941
1.33844
1.33694
1.33493
1.33244
1.32948
1.32607
1.32224
1.31799
1.31336
1.30835
1.30299
1.29728
1.29126
1.28498
1.27785
1.26935
0.0622701
0.0539324
0.0469666
0.0408749
0.0350704
0.0295832
0.024454
0.0196832
0.0152728
0.01123
0.00756311
0.00428111
0.00139311
-0.0010919
-0.00316531
-0.00481919
-0.0060464
-0.00684072
-0.00719699
-0.00711112
-0.00658016
-0.00560228
-0.00417675
-0.00230391
1.48777e-05
0.0027773
0.00598014
0.00961934
0.01369
0.0181865
0.0231027
0.0284315
0.0341658
0.0402977
0.0468189
0.053721
0.0609949
0.0686316
0.0766218
0.0849559
0.0936245
0.102618
0.111926
0.12154
0.13145
0.141646
0.152118
0.162858
0.173856
0.185102
0.196589
0.208307
0.220247
0.232401
0.244762
0.25732
0.270069
0.283
0.296106
0.309381
0.322817
0.336408
0.350147
0.364028
0.378045
0.392192
0.406464
0.420854
0.435359
0.449972
0.464688
0.479504
0.494413
0.509411
0.524494
0.539657
0.554896
0.570206
0.585582
0.601021
0.616518
0.632068
0.647667
0.66331
0.678993
0.69471
0.710457
0.726228
0.742018
0.757821
0.773632
0.789445
0.805252
0.821048
0.836825
0.852577
0.868295
0.883971
0.899598
0.915165
0.930664
0.946084
0.961416
0.976649
0.991771
1.00677
1.02164
1.03635
1.05091
1.0653
1.07949
1.09348
1.10725
1.12079
1.13408
1.1471
1.15983
1.17227
1.18439
1.19617
1.20759
1.21865
1.22932
1.23958
1.24941
1.25881
1.26774
1.2762
1.28418
1.29164
1.29859
1.30501
1.31088
1.31621
1.32096
1.32515
1.32877
1.33181
1.33426
1.33614
1.33743
1.33815
1.3383
1.33789
1.33693
1.33543
1.3334
1.33086
1.32783
1.32432
1.32034
1.31592
1.31106
1.30579
1.30011
1.29402
1.28757
1.28081
1.27308
1.26382
0.066967
0.0579471
0.050439
0.0439049
0.0377067
0.0318747
0.0264502
0.0214297
0.0168116
0.0125993
0.00879756
0.0054115
0.00244674
-9.11196e-05
-0.00219667
-0.00386493
-0.0050915
-0.00587269
-0.00620564
-0.00608836
-0.00551977
-0.00449972
-0.00302897
-0.00110917
0.00125721
0.00406687
0.00731578
0.0109991
0.0151114
0.0196466
0.0245979
0.0299584
0.0357203
0.0418758
0.0484165
0.0553338
0.0626187
0.0702623
0.0782551
0.086588
0.0952514
0.104236
0.113532
0.12313
0.13302
0.143193
0.15364
0.164352
0.175319
0.186532
0.197984
0.209664
0.221564
0.233677
0.245994
0.258508
0.27121
0.284093
0.297151
0.310375
0.32376
0.337298
0.350984
0.364811
0.378773
0.392864
0.407079
0.421413
0.435859
0.450413
0.46507
0.479825
0.494673
0.50961
0.52463
0.53973
0.554905
0.570151
0.585462
0.600836
0.616266
0.63175
0.647281
0.662857
0.678471
0.694119
0.709797
0.725498
0.741219
0.756952
0.772693
0.788435
0.804172
0.819898
0.835606
0.851288
0.866937
0.882546
0.898105
0.913606
0.929041
0.944398
0.959669
0.974842
0.989908
1.00485
1.01967
1.03434
1.04885
1.06319
1.07734
1.0913
1.10504
1.11856
1.13182
1.14483
1.15755
1.16998
1.1821
1.19389
1.20533
1.2164
1.22709
1.23738
1.24726
1.25669
1.26567
1.27419
1.28222
1.28975
1.29676
1.30325
1.3092
1.31459
1.31943
1.32369
1.32738
1.33049
1.33302
1.33495
1.33631
1.33707
1.33726
1.33687
1.33592
1.3344
1.33234
1.32975
1.32663
1.323
1.31887
1.31426
1.30917
1.30363
1.29762
1.29115
1.28428
1.27704
1.26873
1.25876
0.0711941
0.0615173
0.0534834
0.0465164
0.0399297
0.0337545
0.0280331
0.0227589
0.0179271
0.0135379
0.00959287
0.00609384
0.00304326
0.000443652
-0.00170247
-0.00339287
-0.00462575
-0.00539981
-0.00571441
-0.00556959
-0.0049661
-0.00390547
-0.00238994
-0.00042248
0.00199329
0.00485305
0.00815184
0.0118841
0.0160436
0.0206238
0.0256176
0.0310174
0.0368155
0.0430036
0.0495732
0.0565155
0.0638216
0.0714825
0.0794888
0.0878312
0.0965005
0.105487
0.114782
0.124374
0.134257
0.144418
0.154851
0.165545
0.176492
0.187683
0.199109
0.210761
0.222632
0.234713
0.246996
0.259473
0.272138
0.284982
0.297999
0.311182
0.324523
0.338017
0.351656
0.365436
0.37935
0.393392
0.407556
0.421838
0.436232
0.450733
0.465335
0.480035
0.494827
0.509707
0.524671
0.539712
0.554828
0.570014
0.585266
0.600578
0.615947
0.631368
0.646837
0.662349
0.677899
0.693484
0.709097
0.724734
0.740389
0.756057
0.771733
0.787411
0.803084
0.818745
0.83439
0.850009
0.865597
0.881145
0.896644
0.912088
0.927466
0.942769
0.957987
0.973111
0.988129
1.00303
1.0178
1.03243
1.04691
1.06122
1.07535
1.08929
1.10301
1.11651
1.12977
1.14278
1.15551
1.16795
1.18008
1.19189
1.20336
1.21447
1.2252
1.23553
1.24546
1.25495
1.264
1.27258
1.28068
1.28828
1.29538
1.30195
1.30798
1.31346
1.31838
1.32273
1.3265
1.32969
1.33229
1.33429
1.3357
1.33651
1.33673
1.33636
1.33541
1.33388
1.33178
1.32912
1.3259
1.32215
1.31786
1.31305
1.30773
1.3019
1.29557
1.28874
1.28145
1.27374
1.26487
1.2542
0.0749009
0.0645916
0.0560484
0.0486589
0.0416906
0.0351758
0.0291582
0.0236289
0.0185802
0.0140095
0.00991561
0.00629751
0.00315479
0.000487216
-0.00170538
-0.00342334
-0.00466726
-0.00543815
-0.00573747
-0.00556723
-0.00493
-0.00382894
-0.00226777
-0.000250773
0.00221723
0.00513085
0.00848418
0.0122708
0.0164839
0.0211161
0.0261599
0.0316074
0.0374504
0.0436804
0.0502886
0.057266
0.0646038
0.0722925
0.0803231
0.0886862
0.0973723
0.106372
0.115676
0.125276
0.13516
0.145322
0.155751
0.166439
0.177376
0.188554
0.199965
0.2116
0.22345
0.235509
0.247767
0.260218
0.272854
0.285668
0.298652
0.311801
0.325106
0.338563
0.352163
0.365903
0.379775
0.393774
0.407894
0.422131
0.436478
0.450931
0.465485
0.480135
0.494877
0.509705
0.524616
0.539604
0.554666
0.569797
0.584992
0.600248
0.615559
0.630923
0.646333
0.661787
0.677278
0.692803
0.708356
0.723933
0.739528
0.755137
0.770753
0.786371
0.801985
0.817589
0.833176
0.848739
0.864272
0.879766
0.895213
0.910606
0.925936
0.941193
0.956368
0.971451
0.986432
1.0013
1.01604
1.03064
1.0451
1.05939
1.07351
1.08743
1.10116
1.11466
1.12793
1.14094
1.15369
1.16616
1.17832
1.19017
1.20168
1.21284
1.22362
1.23402
1.24401
1.25358
1.2627
1.27136
1.27955
1.28725
1.29443
1.3011
1.30722
1.3128
1.31782
1.32226
1.32612
1.32939
1.33207
1.33414
1.33561
1.33647
1.33673
1.33638
1.33542
1.33387
1.33173
1.329
1.32568
1.3218
1.31735
1.31234
1.30678
1.30067
1.29401
1.28681
1.27911
1.27095
1.26155
1.25021
0.078042
0.0671231
0.0580867
0.0502856
0.0429435
0.0360943
0.0297833
0.0239995
0.0187329
0.0139786
0.00973276
0.00599201
0.00275333
1.39848e-05
-0.00222867
-0.00397736
-0.00523496
-0.00600465
-0.00628993
-0.00609471
-0.00542331
-0.00428051
-0.00267148
-0.000601852
0.00192233
0.00489457
0.00830796
0.0121552
0.0164288
0.0211207
0.0262229
0.0317269
0.0376241
0.0439056
0.0505624
0.0575853
0.0649653
0.0726929
0.0807587
0.0891535
0.0978678
0.106892
0.116217
0.125834
0.135733
0.145905
0.156341
0.167033
0.177972
0.189148
0.200554
0.212181
0.224021
0.236067
0.24831
0.260744
0.27336
0.286151
0.299111
0.312233
0.325511
0.338937
0.352507
0.366213
0.38005
0.394012
0.408095
0.422292
0.436599
0.45101
0.465521
0.480126
0.494822
0.509604
0.524467
0.539406
0.554418
0.569498
0.584643
0.599846
0.615105
0.630415
0.645772
0.66117
0.676607
0.692077
0.707575
0.723096
0.738637
0.754191
0.769752
0.785316
0.800877
0.816429
0.831964
0.847477
0.862961
0.878408
0.89381
0.90916
0.92445
0.939669
0.954809
0.96986
0.984812
0.999654
1.01437
1.02896
1.04341
1.05769
1.07181
1.08573
1.09947
1.11298
1.12627
1.13931
1.15209
1.1646
1.17681
1.18871
1.20028
1.2115
1.22236
1.23283
1.2429
1.25256
1.26177
1.27053
1.27882
1.28662
1.29392
1.30069
1.30693
1.31261
1.31773
1.32228
1.32624
1.32961
1.33237
1.33452
1.33605
1.33696
1.33726
1.33693
1.33597
1.3344
1.33221
1.32941
1.32599
1.32198
1.31736
1.31215
1.30635
1.29996
1.29299
1.28542
1.27732
1.26873
1.2588
1.24683
0.0805759
0.0690689
0.0595548
0.0513531
0.0436457
0.0364683
0.029868
0.0238321
0.0183485
0.0134104
0.0090118
0.00514704
0.00181082
-0.0010019
-0.00329605
-0.00507658
-0.00634851
-0.00711709
-0.00738777
-0.00716629
-0.00645871
-0.00527135
-0.00361087
-0.00148425
0.0011012
0.00413787
0.00761785
0.011533
0.0158748
0.0206348
0.0258042
0.0313741
0.0373352
0.0436784
0.0503943
0.0574735
0.0649066
0.0726842
0.0807966
0.0892344
0.0979882
0.107049
0.116406
0.126051
0.135976
0.14617
0.156624
0.167331
0.178281
0.189466
0.200877
0.212507
0.224347
0.236389
0.248626
0.261051
0.273656
0.286433
0.299378
0.312482
0.325739
0.339143
0.352688
0.366367
0.380176
0.394109
0.408159
0.422323
0.436595
0.45097
0.465443
0.480009
0.494665
0.509404
0.524224
0.53912
0.554087
0.569121
0.584218
0.599374
0.614585
0.629845
0.645152
0.660501
0.675887
0.691306
0.706754
0.722225
0.737715
0.753218
0.76873
0.784246
0.799759
0.815263
0.830753
0.846222
0.861663
0.877069
0.892434
0.907748
0.923003
0.938192
0.953305
0.968333
0.983265
0.998092
1.0128
1.02738
1.04182
1.05611
1.07024
1.08418
1.09793
1.11148
1.1248
1.13788
1.15071
1.16327
1.17554
1.1875
1.19915
1.21045
1.22139
1.23196
1.24213
1.25189
1.26121
1.27009
1.27849
1.28641
1.29383
1.30072
1.30708
1.31289
1.31813
1.32279
1.32686
1.33033
1.33319
1.33542
1.33703
1.338
1.33833
1.33803
1.33708
1.33548
1.33325
1.33037
1.32686
1.32271
1.31793
1.31252
1.30648
1.29982
1.29253
1.28461
1.27612
1.2671
1.25667
1.24408
0.0824645
0.0703891
0.060412
0.0518206
0.0437568
0.0362581
0.0293736
0.0230893
0.0173913
0.012271
0.00772064
0.00373249
0.000299147
-0.00258654
-0.00493162
-0.00674312
-0.00802813
-0.00879385
-0.00904761
-0.00879693
-0.00804952
-0.0068133
-0.00509638
-0.00290712
-0.000254076
0.00285397
0.00640808
0.0103992
0.0148181
0.0196553
0.0249016
0.0305473
0.0365827
0.0429983
0.0497843
0.0569309
0.0644286
0.0722675