/*--------------------------------*- C++ -*----------------------------------*\
  =========                 |
  \\      /  F ield         | OpenFOAM: The Open Source CFD Toolbox
   \\    /   O peration     | Website:  https://openfoam.org
    \\  /    A nd           | Version:  7
     \\/     M anipulation  |
\*---------------------------------------------------------------------------*/
FoamFile
{
    version     2.0;
    format      ascii;
    class       surfaceScalarField;
    location    "0.2";
    object      phi;
}
// * * * * * * * * * * * * * * * * * * * * * * * * * * * * * * * * * * * * * //

dimensions      [0 3 -1 0 0 0 0];

internalField   nonuniform List<scalar> 
25360
(
1.14315e-10
-1.14288e-10
3.5951e-10
-2.45175e-10
6.04038e-10
-2.44564e-10
7.64865e-10
-1.60808e-10
7.97807e-10
-3.29309e-11
6.81071e-10
1.16734e-10
4.06037e-10
2.75027e-10
-2.79596e-11
4.33995e-10
-6.16789e-10
5.88829e-10
-1.35343e-09
7.36641e-10
-2.22912e-09
8.75689e-10
-3.23409e-09
1.00496e-09
-4.35803e-09
1.12394e-09
-5.59042e-09
1.2324e-09
-6.92075e-09
1.33033e-09
-8.33866e-09
1.41791e-09
-9.83403e-09
1.49537e-09
-1.13971e-08
1.56306e-09
-1.30185e-08
1.62137e-09
-1.46892e-08
1.67072e-09
-1.64007e-08
1.71155e-09
-1.81451e-08
1.74435e-09
-1.99146e-08
1.76956e-09
-2.17023e-08
1.78767e-09
-2.35015e-08
1.79917e-09
-2.5306e-08
1.80451e-09
-2.71101e-08
1.80416e-09
-2.89087e-08
1.79856e-09
-3.06968e-08
1.78815e-09
-3.24702e-08
1.77336e-09
-3.42248e-08
1.75459e-09
-3.5957e-08
1.73223e-09
-3.76637e-08
1.70667e-09
-3.93419e-08
1.67825e-09
-4.09893e-08
1.64731e-09
-4.26034e-08
1.61418e-09
-4.41826e-08
1.57915e-09
-4.57251e-08
1.54251e-09
-4.72296e-08
1.50452e-09
-4.86951e-08
1.46544e-09
-5.01205e-08
1.42548e-09
-5.15054e-08
1.38487e-09
-5.28492e-08
1.34379e-09
-5.41516e-08
1.30243e-09
-5.54126e-08
1.26094e-09
-5.6632e-08
1.21949e-09
-5.78102e-08
1.17819e-09
-5.89474e-08
1.13717e-09
-6.00439e-08
1.09653e-09
-6.11003e-08
1.05638e-09
-6.21171e-08
1.01678e-09
-6.30949e-08
9.77809e-10
-6.40344e-08
9.39524e-10
-6.49364e-08
9.01973e-10
-6.58016e-08
8.65192e-10
-6.66308e-08
8.29213e-10
-6.74249e-08
7.94057e-10
-6.81846e-08
7.59735e-10
-6.89108e-08
7.26253e-10
-6.96045e-08
6.93607e-10
-7.02662e-08
6.6179e-10
-7.0897e-08
6.30787e-10
-7.14976e-08
6.00577e-10
-7.20687e-08
5.71136e-10
-7.26112e-08
5.4243e-10
-7.31256e-08
5.14425e-10
-7.36127e-08
4.87082e-10
-7.4073e-08
4.60357e-10
-7.45072e-08
4.34203e-10
-7.49158e-08
4.08569e-10
-7.52992e-08
3.83401e-10
-7.56579e-08
3.58643e-10
-7.59921e-08
3.34236e-10
-7.63022e-08
3.10117e-10
-7.65884e-08
2.86222e-10
-7.68509e-08
2.62486e-10
-7.70898e-08
2.38843e-10
-7.7305e-08
2.15222e-10
-7.74965e-08
1.91552e-10
-7.76643e-08
1.67761e-10
-7.78081e-08
1.43778e-10
-7.79276e-08
1.19529e-10
-7.80225e-08
9.49399e-11
-7.80925e-08
6.99363e-11
-7.81369e-08
4.44434e-11
-7.81553e-08
1.83866e-11
-7.8147e-08
-8.30825e-12
-7.81113e-08
-3.57141e-11
-7.80474e-08
-6.39027e-11
-7.79544e-08
-9.29438e-11
-7.78315e-08
-1.22906e-10
-7.76777e-08
-1.53856e-10
-7.74918e-08
-1.85859e-10
-7.72728e-08
-2.18976e-10
-7.70196e-08
-2.53265e-10
-7.67308e-08
-2.88778e-10
-7.64052e-08
-3.25566e-10
-7.60416e-08
-3.6367e-10
-7.56384e-08
-4.0313e-10
-7.51945e-08
-4.43977e-10
-7.47082e-08
-4.86235e-10
-7.41783e-08
-5.29921e-10
-7.36033e-08
-5.75044e-10
-7.29816e-08
-6.21602e-10
-7.23121e-08
-6.69583e-10
-7.15931e-08
-7.18966e-10
-7.08234e-08
-7.69714e-10
-7.00016e-08
-8.2178e-10
-6.91265e-08
-8.75103e-10
-6.81969e-08
-9.29609e-10
-6.72117e-08
-9.85206e-10
-6.61699e-08
-1.04179e-09
-6.50707e-08
-1.09923e-09
-6.39133e-08
-1.1574e-09
-6.26971e-08
-1.21612e-09
-6.14219e-08
-1.27522e-09
-6.00874e-08
-1.3345e-09
-5.86937e-08
-1.39375e-09
-5.7241e-08
-1.45271e-09
-5.57298e-08
-1.51113e-09
-5.41611e-08
-1.56872e-09
-5.25359e-08
-1.62519e-09
-5.08557e-08
-1.6802e-09
-4.91223e-08
-1.73341e-09
-4.73379e-08
-1.78445e-09
-4.55049e-08
-1.83293e-09
-4.36265e-08
-1.87844e-09
-4.17059e-08
-1.92057e-09
-3.97471e-08
-1.95886e-09
-3.77542e-08
-1.99285e-09
-3.57321e-08
-2.02208e-09
-3.36861e-08
-2.04605e-09
-3.16218e-08
-2.06428e-09
-2.95456e-08
-2.07625e-09
-2.74641e-08
-2.08144e-09
-2.53848e-08
-2.07936e-09
-2.33153e-08
-2.06948e-09
-2.1264e-08
-2.05128e-09
-1.92397e-08
-2.02427e-09
-1.72518e-08
-1.98795e-09
-1.531e-08
-1.94183e-09
-1.34245e-08
-1.88545e-09
-1.16061e-08
-1.8184e-09
-9.86584e-09
-1.74026e-09
-8.21513e-09
-1.65071e-09
-6.6657e-09
-1.54944e-09
-5.22943e-09
-1.43626e-09
-3.91834e-09
-1.3111e-09
-2.74432e-09
-1.17402e-09
-1.71899e-09
-1.02533e-09
-8.53323e-10
-8.65672e-10
-1.57137e-10
-6.96184e-10
3.61649e-10
-5.18782e-10
6.98281e-10
-3.3663e-10
8.53254e-10
-1.54973e-10
8.35799e-10
1.74512e-11
6.69725e-10
1.66069e-10
4.0377e-10
2.65956e-10
1.30724e-10
2.73062e-10
1.30752e-10
2.45429e-10
-3.59693e-10
6.33864e-10
-6.33678e-10
9.49797e-10
-5.60467e-10
1.04649e-09
-2.57474e-10
8.281e-10
1.8545e-10
2.3817e-10
7.06653e-10
-7.51651e-10
1.26485e-09
-2.15039e-09
1.83274e-09
-3.95393e-09
2.39237e-09
-6.14929e-09
2.93199e-09
-8.71759e-09
3.44399e-09
-1.16361e-08
3.92352e-09
-1.48799e-08
4.36767e-09
-1.84223e-08
4.77486e-09
-2.22364e-08
5.14446e-09
-2.62951e-08
5.47654e-09
-3.05714e-08
5.77167e-09
-3.50391e-08
6.03074e-09
-3.96726e-08
6.25495e-09
-4.44476e-08
6.44569e-09
-4.93405e-08
6.60446e-09
-5.4329e-08
6.73286e-09
-5.9392e-08
6.83256e-09
-6.45096e-08
6.90527e-09
-6.96631e-08
6.9527e-09
-7.48352e-08
6.97657e-09
-8.00096e-08
6.97857e-09
-8.51714e-08
6.96036e-09
-9.03068e-08
6.92358e-09
-9.54033e-08
6.86982e-09
-1.00449e-07
6.80061e-09
-1.05435e-07
6.71742e-09
-1.1035e-07
6.62167e-09
-1.15186e-07
6.51473e-09
-1.19937e-07
6.39787e-09
-1.24595e-07
6.27233e-09
-1.29155e-07
6.13926e-09
-1.33612e-07
5.99974e-09
-1.37962e-07
5.8548e-09
-1.42202e-07
5.7054e-09
-1.46329e-07
5.55241e-09
-1.50341e-07
5.39666e-09
-1.54236e-07
5.23891e-09
-1.58014e-07
5.07985e-09
-1.61673e-07
4.92013e-09
-1.65214e-07
4.76031e-09
-1.68636e-07
4.60092e-09
-1.71942e-07
4.44243e-09
-1.7513e-07
4.28526e-09
-1.78204e-07
4.12977e-09
-1.81163e-07
3.97628e-09
-1.8401e-07
3.82507e-09
-1.86747e-07
3.67637e-09
-1.89376e-07
3.53038e-09
-1.91898e-07
3.38725e-09
-1.94316e-07
3.2471e-09
-1.96632e-07
3.11003e-09
-1.98848e-07
2.97607e-09
-2.00967e-07
2.84527e-09
-2.02991e-07
2.71762e-09
-2.04922e-07
2.59309e-09
-2.06763e-07
2.47163e-09
-2.08516e-07
2.35316e-09
-2.10182e-07
2.2376e-09
-2.11765e-07
2.12483e-09
-2.13265e-07
2.01471e-09
-2.14685e-07
1.90709e-09
-2.16026e-07
1.80182e-09
-2.17291e-07
1.69871e-09
-2.1848e-07
1.59757e-09
-2.19595e-07
1.4982e-09
-2.20636e-07
1.40038e-09
-2.21606e-07
1.30388e-09
-2.22504e-07
1.20847e-09
-2.23332e-07
1.1139e-09
-2.24089e-07
1.01993e-09
-2.24777e-07
9.26285e-10
-2.25394e-07
8.32715e-10
-2.25942e-07
7.38947e-10
-2.26419e-07
6.44705e-10
-2.26825e-07
5.4971e-10
-2.27159e-07
4.53679e-10
-2.2742e-07
3.5633e-10
-2.27608e-07
2.57381e-10
-2.2772e-07
1.56549e-10
-2.27755e-07
5.35499e-11
-2.27711e-07
-5.18975e-11
-2.27587e-07
-1.60071e-10
-2.2738e-07
-2.71243e-10
-2.27087e-07
-3.85681e-10
-2.26706e-07
-5.03645e-10
-2.26235e-07
-6.25387e-10
-2.25669e-07
-7.51148e-10
-2.25007e-07
-8.81157e-10
-2.24245e-07
-1.01563e-09
-2.23379e-07
-1.15476e-09
-2.22406e-07
-1.29873e-09
-2.21322e-07
-1.4477e-09
-2.20123e-07
-1.60182e-09
-2.18806e-07
-1.76119e-09
-2.17366e-07
-1.92589e-09
-2.158e-07
-2.09598e-09
-2.14104e-07
-2.27149e-09
-2.12273e-07
-2.45239e-09
-2.10304e-07
-2.63862e-09
-2.08193e-07
-2.8301e-09
-2.05936e-07
-3.02668e-09
-2.03529e-07
-3.22815e-09
-2.0097e-07
-3.43428e-09
-1.98255e-07
-3.64477e-09
-1.95381e-07
-3.85926e-09
-1.92345e-07
-4.07732e-09
-1.89146e-07
-4.29846e-09
-1.85781e-07
-4.52214e-09
-1.8225e-07
-4.74773e-09
-1.7855e-07
-4.97452e-09
-1.74683e-07
-5.20175e-09
-1.70648e-07
-5.42856e-09
-1.66447e-07
-5.65404e-09
-1.62081e-07
-5.87716e-09
-1.57553e-07
-6.09684e-09
-1.52866e-07
-6.31191e-09
-1.48025e-07
-6.52113e-09
-1.43036e-07
-6.72316e-09
-1.37903e-07
-6.91661e-09
-1.32636e-07
-7.09999e-09
-1.27243e-07
-7.27175e-09
-1.21733e-07
-7.43028e-09
-1.16118e-07
-7.57391e-09
-1.1041e-07
-7.70089e-09
-1.04623e-07
-7.80944e-09
-9.87712e-08
-7.89773e-09
-9.28716e-08
-7.9639e-09
-8.69417e-08
-8.00606e-09
-8.10009e-08
-8.0223e-09
-7.50695e-08
-8.01073e-09
-6.91695e-08
-7.96945e-09
-6.33242e-08
-7.89658e-09
-5.75582e-08
-7.79029e-09
-5.18973e-08
-7.64882e-09
-4.63687e-08
-7.47048e-09
-4.10005e-08
-7.25368e-09
-3.58219e-08
-6.99698e-09
-3.0863e-08
-6.69914e-09
-2.61546e-08
-6.35914e-09
-2.17278e-08
-5.97626e-09
-1.76138e-08
-5.5502e-09
-1.38437e-08
-5.08121e-09
-1.04474e-08
-4.57026e-09
-7.45343e-09
-4.01934e-09
-4.88727e-09
-3.43185e-09
-2.77019e-09
-2.81327e-09
-1.1169e-09
-2.17206e-09
6.76716e-11
-1.52121e-09
7.93167e-10
-8.80471e-10
1.09064e-09
-2.80019e-10
1.02247e-09
2.34241e-10
6.9518e-10
5.93213e-10
2.7305e-10
6.95143e-10
4.03812e-10
2.4576e-10
-6.0549e-10
5.63375e-10
-9.51259e-10
6.97669e-10
-6.94736e-10
4.74672e-10
-3.4481e-11
-2.25279e-10
8.85387e-10
-1.47803e-09
1.95941e-09
-3.32548e-09
3.11229e-09
-5.78414e-09
4.2914e-09
-8.85203e-09
5.46026e-09
-1.25138e-08
6.59379e-09
-1.67447e-08
7.67491e-09
-2.15135e-08
8.69228e-09
-2.67844e-08
9.63859e-09
-3.25191e-08
1.05095e-08
-3.86775e-08
1.13029e-08
-4.5219e-08
1.20181e-08
-5.21031e-08
1.26557e-08
-5.92895e-08
1.32172e-08
-6.67393e-08
1.37047e-08
-7.44144e-08
1.41208e-08
-8.22784e-08
1.44685e-08
-9.02965e-08
1.47509e-08
-9.84355e-08
1.49716e-08
-1.06664e-07
1.51339e-08
-1.14953e-07
1.52414e-08
-1.23274e-07
1.52978e-08
-1.31602e-07
1.53065e-08
-1.39913e-07
1.52712e-08
-1.48185e-07
1.51954e-08
-1.56397e-07
1.50823e-08
-1.64532e-07
1.49352e-08
-1.72572e-07
1.47575e-08
-1.80502e-07
1.45521e-08
-1.88309e-07
1.43219e-08
-1.95981e-07
1.40697e-08
-2.03507e-07
1.37983e-08
-2.10878e-07
1.351e-08
-2.18085e-07
1.32074e-08
-2.25123e-07
1.28925e-08
-2.31985e-07
1.25676e-08
-2.38667e-07
1.22344e-08
-2.45166e-07
1.18949e-08
-2.51477e-07
1.15507e-08
-2.57601e-07
1.12034e-08
-2.63535e-07
1.08542e-08
-2.69279e-07
1.05046e-08
-2.74834e-07
1.01556e-08
-2.802e-07
9.80836e-09
-2.85378e-07
9.46371e-09
-2.90371e-07
9.1225e-09
-2.9518e-07
8.78544e-09
-2.99808e-07
8.45314e-09
-3.04258e-07
8.12614e-09
-3.08533e-07
7.80486e-09
-3.12635e-07
7.48967e-09
-3.16569e-07
7.18083e-09
-3.20337e-07
6.87855e-09
-3.23944e-07
6.58296e-09
-3.27393e-07
6.29413e-09
-3.30688e-07
6.01206e-09
-3.33831e-07
5.7367e-09
-3.36827e-07
5.46795e-09
-3.3968e-07
5.20566e-09
-3.42392e-07
4.94963e-09
-3.44967e-07
4.6996e-09
-3.47407e-07
4.45531e-09
-3.49717e-07
4.21642e-09
-3.51897e-07
3.9826e-09
-3.53952e-07
3.75344e-09
-3.55883e-07
3.52853e-09
-3.57692e-07
3.30744e-09
-3.59382e-07
3.08969e-09
-3.60953e-07
2.8748e-09
-3.62406e-07
2.66224e-09
-3.63744e-07
2.4515e-09
-3.64966e-07
2.24203e-09
-3.66073e-07
2.03326e-09
-3.67065e-07
1.82463e-09
-3.67942e-07
1.61553e-09
-3.68702e-07
1.40537e-09
-3.69346e-07
1.19356e-09
-3.69872e-07
9.79479e-10
-3.70278e-07
7.62517e-10
-3.70563e-07
5.42057e-10
-3.70724e-07
3.17483e-10
-3.70758e-07
8.81821e-11
-3.70664e-07
-1.46453e-10
-3.70437e-07
-3.87023e-10
-3.70074e-07
-6.34117e-10
-3.69571e-07
-8.88313e-10
-3.68925e-07
-1.15017e-09
-3.6813e-07
-1.42023e-09
-3.67182e-07
-1.69901e-09
-3.66076e-07
-1.987e-09
-3.64807e-07
-2.28466e-09
-3.6337e-07
-2.5924e-09
-3.61758e-07
-2.91062e-09
-3.59966e-07
-3.23965e-09
-3.57988e-07
-3.57978e-09
-3.55818e-07
-3.93124e-09
-3.53449e-07
-4.29419e-09
-3.50877e-07
-4.66874e-09
-3.48093e-07
-5.05493e-09
-3.45093e-07
-5.45269e-09
-3.4187e-07
-5.86189e-09
-3.38417e-07
-6.28229e-09
-3.34731e-07
-6.71357e-09
-3.30803e-07
-7.15529e-09
-3.26631e-07
-7.60689e-09
-3.22208e-07
-8.06769e-09
-3.1753e-07
-8.53691e-09
-3.12594e-07
-9.01359e-09
-3.07396e-07
-9.49667e-09
-3.01933e-07
-9.98492e-09
-2.96204e-07
-1.0477e-08
-2.90207e-07
-1.09713e-08
-2.83943e-07
-1.14661e-08
-2.77412e-07
-1.19597e-08
-2.70616e-07
-1.24499e-08
-2.63558e-07
-1.29346e-08
-2.56244e-07
-1.34114e-08
-2.48678e-07
-1.38778e-08
-2.40868e-07
-1.4331e-08
-2.32823e-07
-1.47682e-08
-2.24553e-07
-1.51863e-08
-2.16071e-07
-1.5582e-08
-2.07391e-07
-1.59522e-08
-1.98528e-07
-1.62933e-08
-1.895e-07
-1.66015e-08
-1.80328e-07
-1.68734e-08
-1.71032e-07
-1.71049e-08
-1.61638e-07
-1.72922e-08
-1.5217e-07
-1.74312e-08
-1.42658e-07
-1.75181e-08
-1.33132e-07
-1.75486e-08
-1.23624e-07
-1.75189e-08
-1.14168e-07
-1.74248e-08
-1.04803e-07
-1.72625e-08
-9.55646e-08
-1.70282e-08
-8.64952e-08
-1.67182e-08
-7.76365e-08
-1.63292e-08
-6.90323e-08
-1.58579e-08
-6.07278e-08
-1.53015e-08
-5.27691e-08
-1.46579e-08
-4.52031e-08
-1.39251e-08
-3.80771e-08
-1.31023e-08
-3.14378e-08
-1.21894e-08
-2.53312e-08
-1.11878e-08
-1.9801e-08
-1.01005e-08
-1.48877e-08
-8.93269e-09
-1.06265e-08
-7.69299e-09
-7.04558e-09
-6.39422e-09
-4.1622e-09
-5.05545e-09
-1.97896e-09
-3.70447e-09
-4.77807e-10
-2.38163e-09
3.8746e-10
-1.14527e-09
7.00971e-10
-7.9227e-11
5.95943e-10
6.98249e-10
2.66838e-10
1.02423e-09
6.70651e-10
1.63734e-10
-7.69208e-10
2.64702e-10
-1.0522e-09
4.4181e-11
-4.74215e-10
-6.78162e-10
6.87852e-10
-2.02906e-09
2.23628e-09
-4.09171e-09
4.02206e-09
-6.91422e-09
5.93479e-09
-1.05171e-08
7.89427e-09
-1.48996e-08
9.84278e-09
-2.0045e-08
1.17391e-08
-2.59244e-08
1.35544e-08
-3.25006e-08
1.52685e-08
-3.973e-08
1.6868e-08
-4.75651e-08
1.83446e-08
-5.59556e-08
1.96934e-08
-6.48502e-08
2.09127e-08
-7.4197e-08
2.20025e-08
-8.39444e-08
2.29645e-08
-9.40416e-08
2.3802e-08
-1.04439e-07
2.45186e-08
-1.1509e-07
2.51191e-08
-1.25948e-07
2.56086e-08
-1.36969e-07
2.59925e-08
-1.48111e-07
2.62767e-08
-1.59337e-07
2.64669e-08
-1.70609e-07
2.65692e-08
-1.81892e-07
2.65896e-08
-1.93154e-07
2.65339e-08
-2.04367e-07
2.64081e-08
-2.15503e-07
2.62178e-08
-2.26536e-07
2.59688e-08
-2.37445e-07
2.56662e-08
-2.48208e-07
2.53155e-08
-2.58808e-07
2.49217e-08
-2.69228e-07
2.44894e-08
-2.79453e-07
2.40233e-08
-2.8947e-07
2.35277e-08
-2.9927e-07
2.30066e-08
-3.08841e-07
2.2464e-08
-3.18177e-07
2.19035e-08
-3.27271e-07
2.13283e-08
-3.36118e-07
2.07417e-08
-3.44713e-07
2.01464e-08
-3.53055e-07
1.95453e-08
-3.61142e-07
1.89406e-08
-3.68972e-07
1.83347e-08
-3.76546e-07
1.77295e-08
-3.83864e-07
1.71269e-08
-3.90929e-07
1.65284e-08
-3.97742e-07
1.59356e-08
-4.04306e-07
1.53496e-08
-4.10625e-07
1.47716e-08
-4.16701e-07
1.42024e-08
-4.22539e-07
1.36429e-08
-4.28143e-07
1.30936e-08
-4.33517e-07
1.25551e-08
-4.38666e-07
1.20278e-08
-4.43595e-07
1.15118e-08
-4.48308e-07
1.10073e-08
-4.52811e-07
1.05144e-08
-4.57107e-07
1.00329e-08
-4.61202e-07
9.56275e-09
-4.651e-07
9.1036e-09
-4.68805e-07
8.65515e-09
-4.72323e-07
8.217e-09
-4.75656e-07
7.78865e-09
-4.78809e-07
7.36956e-09
-4.81786e-07
6.95914e-09
-4.84589e-07
6.55672e-09
-4.87222e-07
6.16158e-09
-4.89688e-07
5.77297e-09
-4.91988e-07
5.39009e-09
-4.94125e-07
5.01208e-09
-4.96101e-07
4.63808e-09
-4.97917e-07
4.26717e-09
-4.99573e-07
3.89841e-09
-5.01071e-07
3.53082e-09
-5.02409e-07
3.16343e-09
-5.03589e-07
2.79522e-09
-5.04609e-07
2.42516e-09
-5.05468e-07
2.05222e-09
-5.06163e-07
1.67534e-09
-5.06694e-07
1.29348e-09
-5.07058e-07
9.05558e-10
-5.07251e-07
5.10532e-10
-5.0727e-07
1.07347e-10
-5.07112e-07
-3.0504e-10
-5.06771e-07
-7.27658e-10
-5.06244e-07
-1.16152e-09
-5.05524e-07
-1.60761e-09
-5.04608e-07
-2.06689e-09
-5.03487e-07
-2.54027e-09
-5.02158e-07
-3.02864e-09
-5.00612e-07
-3.53283e-09
-4.98843e-07
-4.05363e-09
-4.96844e-07
-4.59173e-09
-4.94607e-07
-5.14779e-09
-4.92124e-07
-5.72238e-09
-4.89388e-07
-6.31596e-09
-4.8639e-07
-6.92892e-09
-4.83123e-07
-7.56153e-09
-4.79577e-07
-8.21394e-09
-4.75746e-07
-8.88619e-09
-4.71621e-07
-9.57815e-09
-4.67193e-07
-1.02896e-08
-4.62455e-07
-1.102e-08
-4.574e-07
-1.17689e-08
-4.5202e-07
-1.25354e-08
-4.46308e-07
-1.33186e-08
-4.40258e-07
-1.41173e-08
-4.33865e-07
-1.49301e-08
-4.27124e-07
-1.57553e-08
-4.20029e-07
-1.6591e-08
-4.12579e-07
-1.74352e-08
-4.04771e-07
-1.82854e-08
-3.96603e-07
-1.9139e-08
-3.88076e-07
-1.9993e-08
-3.79191e-07
-2.08442e-08
-3.69952e-07
-2.16891e-08
-3.60363e-07
-2.25239e-08
-3.5043e-07
-2.33445e-08
-3.40161e-07
-2.41466e-08
-3.29567e-07
-2.49253e-08
-3.18659e-07
-2.56759e-08
-3.07452e-07
-2.6393e-08
-2.95963e-07
-2.70712e-08
-2.8421e-07
-2.77048e-08
-2.72216e-07
-2.82877e-08
-2.60004e-07
-2.88139e-08
-2.476e-07
-2.92768e-08
-2.35035e-07
-2.967e-08
-2.2234e-07
-2.99869e-08
-2.09551e-07
-3.02206e-08
-1.96704e-07
-3.03644e-08
-1.83842e-07
-3.04115e-08
-1.71005e-07
-3.0355e-08
-1.58242e-07
-3.01884e-08
-1.45599e-07
-2.9905e-08
-1.33129e-07
-2.94987e-08
-1.20884e-07
-2.89634e-08
-1.08919e-07
-2.82936e-08
-9.72929e-08
-2.74843e-08
-8.60631e-08
-2.65313e-08
-7.52898e-08
-2.54312e-08
-6.50333e-08
-2.41815e-08
-5.53542e-08
-2.27815e-08
-4.63117e-08
-2.12319e-08
-3.79634e-08
-1.95361e-08
-3.03637e-08
-1.77002e-08
-2.35619e-08
-1.57345e-08
-1.76004e-08
-1.36545e-08
-1.25115e-08
-1.14831e-08
-8.31442e-09
-9.25256e-09
-5.0101e-09
-7.00878e-09
-2.57598e-09
-4.81575e-09
-9.58798e-10
-2.76247e-09
-6.61686e-11
-9.71882e-10
2.42862e-10
3.89256e-10
1.68956e-10
1.09813e-09
8.39607e-10
3.77424e-11
-8.06932e-10
-1.74187e-10
-8.40286e-10
-8.70552e-10
2.22132e-10
-2.22139e-09
2.03869e-09
-4.34847e-09
4.36336e-09
-7.33331e-09
7.0069e-09
-1.12239e-08
9.82534e-09
-1.60406e-08
1.2711e-08
-2.17822e-08
1.55843e-08
-2.84296e-08
1.83866e-08
-3.59509e-08
2.10756e-08
-4.43036e-08
2.36212e-08
-5.34383e-08
2.60026e-08
-6.32999e-08
2.82062e-08
-7.38303e-08
3.02238e-08
-8.49692e-08
3.20516e-08
-9.66554e-08
3.36886e-08
-1.08828e-07
3.51369e-08
-1.21426e-07
3.64e-08
-1.3439e-07
3.74832e-08
-1.47664e-07
3.83929e-08
-1.61192e-07
3.91362e-08
-1.7492e-07
3.97211e-08
-1.88799e-07
4.01558e-08
-2.02781e-07
4.04488e-08
-2.16821e-07
4.0609e-08
-2.30876e-07
4.06451e-08
-2.44908e-07
4.05659e-08
-2.5888e-07
4.03801e-08
-2.72759e-07
4.00964e-08
-2.86513e-07
3.9723e-08
-3.00115e-07
3.9268e-08
-3.13539e-07
3.87394e-08
-3.26762e-07
3.81447e-08
-3.39764e-07
3.74911e-08
-3.52526e-07
3.67854e-08
-3.65033e-07
3.60344e-08
-3.7727e-07
3.5244e-08
-3.89226e-07
3.44203e-08
-4.00891e-07
3.35686e-08
-4.12257e-07
3.2694e-08
-4.23317e-07
3.18014e-08
-4.34065e-07
3.08952e-08
-4.44499e-07
2.99793e-08
-4.54616e-07
2.90576e-08
-4.64415e-07
2.81334e-08
-4.73895e-07
2.72098e-08
-4.83058e-07
2.62896e-08
-4.91905e-07
2.53754e-08
-5.00439e-07
2.44692e-08
-5.08662e-07
2.3573e-08
-5.16579e-07
2.26885e-08
-5.24194e-07
2.18172e-08
-5.31511e-07
2.09602e-08
-5.38536e-07
2.01185e-08
-5.45274e-07
1.92929e-08
-5.5173e-07
1.84839e-08
-5.5791e-07
1.7692e-08
-5.6382e-07
1.69174e-08
-5.69466e-07
1.61601e-08
-5.74853e-07
1.54201e-08
-5.79987e-07
1.4697e-08
-5.84874e-07
1.39906e-08
-5.89519e-07
1.33003e-08
-5.93928e-07
1.26255e-08
-5.98105e-07
1.19655e-08
-6.02055e-07
1.13195e-08
-6.05782e-07
1.06865e-08
-6.09291e-07
1.00656e-08
-6.12585e-07
9.45574e-09
-6.15668e-07
8.8557e-09
-6.18542e-07
8.26429e-09
-6.2121e-07
7.68023e-09
-6.23674e-07
7.10219e-09
-6.25936e-07
6.5288e-09
-6.27996e-07
5.95863e-09
-6.29855e-07
5.39022e-09
-6.31514e-07
4.82205e-09
-6.32971e-07
4.25261e-09
-6.34227e-07
3.68033e-09
-6.35278e-07
3.10364e-09
-6.36124e-07
2.52096e-09
-6.36761e-07
1.93068e-09
-6.37187e-07
1.33121e-09
-6.37397e-07
7.20939e-10
-6.37388e-07
9.82799e-11
-6.37155e-07
-5.38343e-10
-6.36692e-07
-1.19048e-09
-6.35994e-07
-1.85966e-09
-6.35054e-07
-2.54736e-09
-6.33866e-07
-3.25502e-09
-6.32422e-07
-3.98404e-09
-6.30715e-07
-4.73573e-09
-6.28736e-07
-5.51134e-09
-6.26478e-07
-6.31203e-09
-6.23931e-07
-7.13886e-09
-6.21086e-07
-7.9928e-09
-6.17934e-07
-8.87467e-09
-6.14464e-07
-9.78517e-09
-6.10668e-07
-1.07249e-08
-6.06536e-07
-1.16941e-08
-6.02057e-07
-1.26932e-08
-5.97221e-07
-1.3722e-08
-5.92019e-07
-1.47804e-08
-5.8644e-07
-1.5868e-08
-5.80476e-07
-1.6984e-08
-5.74117e-07
-1.81276e-08
-5.67355e-07
-1.92975e-08
-5.60182e-07
-2.04923e-08
-5.52589e-07
-2.171e-08
-5.44571e-07
-2.29485e-08
-5.36121e-07
-2.42053e-08
-5.27234e-07
-2.54774e-08
-5.17908e-07
-2.67618e-08
-5.08138e-07
-2.80546e-08
-4.97926e-07
-2.93519e-08
-4.87269e-07
-3.06491e-08
-4.76172e-07
-3.19413e-08
-4.64638e-07
-3.32233e-08
-4.52673e-07
-3.44892e-08
-4.40285e-07
-3.57329e-08
-4.27483e-07
-3.69476e-08
-4.14282e-07
-3.81264e-08
-4.00697e-07
-3.92617e-08
-3.86744e-07
-4.03456e-08
-3.72445e-07
-4.137e-08
-3.57824e-07
-4.2326e-08
-3.42907e-07
-4.32047e-08
-3.27724e-07
-4.39969e-08
-3.12308e-07
-4.4693e-08
-2.96695e-07
-4.52831e-08
-2.80924e-07
-4.57573e-08
-2.6504e-07
-4.61056e-08
-2.49086e-07
-4.63177e-08
-2.33114e-07
-4.63836e-08
-2.17176e-07
-4.62933e-08
-2.01327e-07
-4.60368e-08
-1.85628e-07
-4.56047e-08
-1.70139e-07
-4.49878e-08
-1.54924e-07
-4.41776e-08
-1.40052e-07
-4.3166e-08
-1.2559e-07
-4.19463e-08
-1.11609e-07
-4.05124e-08
-9.81801e-08
-3.886e-08
-8.53752e-08
-3.69865e-08
-7.32653e-08
-3.48914e-08
-6.19201e-08
-3.2577e-08
-5.14068e-08
-3.00494e-08
-4.17878e-08
-2.73192e-08
-3.31196e-08
-2.44026e-08
-2.54502e-08
-2.1324e-08
-1.88157e-08
-1.81175e-08
-1.32375e-08
-1.48308e-08
-8.71725e-09
-1.1529e-08
-5.23227e-09
-8.30073e-09
-2.72932e-09
-5.26542e-09
-1.11795e-09
-2.58327e-09
-2.63132e-10
-4.65541e-10
2.32406e-11
8.11751e-10
8.62846e-10
-1.10603e-10
-6.96332e-10
-6.9398e-10
-2.56916e-10
-1.94594e-09
1.47409e-09
-4.01427e-09
4.10702e-09
-7.00676e-09
7.35584e-09
-1.09962e-08
1.09963e-08
-1.60249e-08
1.48541e-08
-2.21097e-08
1.87958e-08
-2.92459e-08
2.27205e-08
-3.74114e-08
2.65521e-08
-4.65702e-08
3.02344e-08
-5.66755e-08
3.37265e-08
-6.76723e-08
3.69994e-08
-7.94997e-08
4.00336e-08
-9.20926e-08
4.28167e-08
-1.05383e-07
4.53423e-08
-1.19303e-07
4.76084e-08
-1.33782e-07
4.96163e-08
-1.48753e-07
5.13704e-08
-1.64147e-07
5.28771e-08
-1.79898e-07
5.41445e-08
-1.95944e-07
5.51821e-08
-2.12223e-07
5.60001e-08
-2.28677e-07
5.66097e-08
-2.45251e-07
5.70223e-08
-2.61892e-07
5.72499e-08
-2.78551e-07
5.73044e-08
-2.95183e-07
5.71979e-08
-3.11745e-07
5.69422e-08
-3.28198e-07
5.65492e-08
-3.44505e-07
5.60305e-08
-3.60634e-07
5.53971e-08
-3.76555e-07
5.466e-08
-3.9224e-07
5.38298e-08
-4.07666e-07
5.29164e-08
-4.2281e-07
5.19295e-08
-4.37653e-07
5.08781e-08
-4.5218e-07
4.97711e-08
-4.66377e-07
4.86164e-08
-4.8023e-07
4.74219e-08
-4.9373e-07
4.61946e-08
-5.0687e-07
4.49413e-08
-5.19643e-07
4.36681e-08
-5.32045e-07
4.23807e-08
-5.44072e-07
4.10845e-08
-5.55722e-07
3.97842e-08
-5.66997e-07
3.84842e-08
-5.77895e-07
3.71883e-08
-5.8842e-07
3.59001e-08
-5.98574e-07
3.46228e-08
-6.0836e-07
3.3359e-08
-6.17782e-07
3.21112e-08
-6.26847e-07
3.08813e-08
-6.35558e-07
2.96712e-08
-6.43921e-07
2.84821e-08
-6.51944e-07
2.73153e-08
-6.59631e-07
2.61715e-08
-6.66991e-07
2.50513e-08
-6.74028e-07
2.39551e-08
-6.80751e-07
2.2883e-08
-6.87166e-07
2.18347e-08
-6.93279e-07
2.08101e-08
-6.99097e-07
1.98086e-08
-7.04626e-07
1.88296e-08
-7.09873e-07
1.78721e-08
-7.14843e-07
1.69352e-08
-7.19541e-07
1.60178e-08
-7.23973e-07
1.51186e-08
-7.28144e-07
1.42362e-08
-7.32057e-07
1.33691e-08
-7.35717e-07
1.25158e-08
-7.39127e-07
1.16744e-08
-7.4229e-07
1.08433e-08
-7.45209e-07
1.00205e-08
-7.47884e-07
9.20426e-09
-7.50318e-07
8.39242e-09
-7.52511e-07
7.58299e-09
-7.54462e-07
6.77388e-09
-7.56173e-07
5.96294e-09
-7.5764e-07
5.148e-09
-7.58864e-07
4.32686e-09
-7.5984e-07
3.4973e-09
-7.60566e-07
2.6571e-09
-7.61039e-07
1.80401e-09
-7.61254e-07
9.35803e-10
-7.61206e-07
5.02651e-11
-7.6089e-07
-8.548e-10
-7.60299e-07
-1.78155e-09
-7.59426e-07
-2.73212e-09
-7.58265e-07
-3.70856e-09
-7.56807e-07
-4.71287e-09
-7.55044e-07
-5.74698e-09
-7.52967e-07
-6.81272e-09
-7.50567e-07
-7.91181e-09
-7.47833e-07
-9.04586e-09
-7.44755e-07
-1.02163e-08
-7.41324e-07
-1.14245e-08
-7.37527e-07
-1.26716e-08
-7.33353e-07
-1.39585e-08
-7.28792e-07
-1.52859e-08
-7.23832e-07
-1.66544e-08
-7.18461e-07
-1.80643e-08
-7.12667e-07
-1.95154e-08
-7.0644e-07
-2.10075e-08
-6.99768e-07
-2.254e-08
-6.9264e-07
-2.41119e-08
-6.85046e-07
-2.57217e-08
-6.76976e-07
-2.73678e-08
-6.6842e-07
-2.9048e-08
-6.5937e-07
-3.07598e-08
-6.49819e-07
-3.24999e-08
-6.39759e-07
-3.4265e-08
-6.29186e-07
-3.60509e-08
-6.18095e-07
-3.7853e-08
-6.06483e-07
-3.96662e-08
-5.9435e-07
-4.14848e-08
-5.81697e-07
-4.33024e-08
-5.68526e-07
-4.51124e-08
-5.54842e-07
-4.6907e-08
-5.40653e-07
-4.86784e-08
-5.25968e-07
-5.04178e-08
-5.108e-07
-5.21159e-08
-4.95163e-07
-5.3763e-08
-4.79076e-07
-5.53484e-08
-4.62561e-07
-5.68613e-08
-4.4564e-07
-5.82902e-08
-4.28343e-07
-5.96229e-08
-4.10701e-07
-6.08471e-08
-3.92748e-07
-6.19498e-08
-3.74523e-07
-6.29177e-08
-3.56069e-07
-6.37374e-08
-3.37431e-07
-6.43952e-08
-3.1866e-07
-6.4877e-08
-2.99809e-07
-6.51689e-08
-2.80935e-07
-6.52571e-08
-2.62101e-07
-6.51279e-08
-2.43369e-07
-6.47679e-08
-2.2481e-07
-6.41641e-08
-2.06494e-07
-6.33042e-08
-1.88494e-07
-6.21769e-08
-1.70889e-07
-6.07716e-08
-1.53756e-07
-5.90794e-08
-1.37175e-07
-5.70929e-08
-1.21228e-07
-5.48067e-08
-1.05997e-07
-5.22182e-08
-9.15604e-08
-4.93278e-08
-7.79975e-08
-4.61399e-08
-6.53829e-08
-4.2664e-08
-5.37864e-08
-3.89157e-08
-4.32704e-08
-3.49186e-08
-3.3888e-08
-3.07064e-08
-2.56797e-08
-2.63259e-08
-1.86702e-08
-2.18402e-08
-1.28649e-08
-1.73343e-08
-8.24505e-09
-1.29206e-08
-4.76351e-09
-8.74695e-09
-2.33967e-09
-5.00711e-09
-8.54563e-10
-1.95065e-09
-1.45839e-10
1.03023e-10
7.17004e-10
-2.6884e-10
-4.27503e-10
-1.2559e-09
7.3014e-10
-3.11185e-09
3.33004e-09
-5.95497e-09
6.95013e-09
-9.87267e-09
1.12735e-08
-1.49236e-08
1.60472e-08
-2.11401e-08
2.10706e-08
-2.85318e-08
2.61876e-08
-3.70884e-08
3.1277e-08
-4.67826e-08
3.62464e-08
-5.75741e-08
4.10258e-08
-6.9411e-08
4.55634e-08
-8.22332e-08
4.98217e-08
-9.59744e-08
5.37748e-08
-1.10563e-07
5.74058e-08
-1.25926e-07
6.07053e-08
-1.41987e-07
6.36695e-08
-1.58671e-07
6.62995e-08
-1.759e-07
6.85998e-08
-1.93601e-07
7.0578e-08
-2.117e-07
7.2244e-08
-2.30128e-07
7.36094e-08
-2.48815e-07
7.46872e-08
-2.67697e-07
7.54914e-08
-2.86711e-07
7.60368e-08
-3.058e-07
7.63385e-08
-3.24907e-07
7.64119e-08
-3.43982e-07
7.62728e-08
-3.62976e-07
7.59365e-08
-3.81845e-07
7.54184e-08
-4.00548e-07
7.47335e-08
-4.19048e-07
7.38966e-08
-4.3731e-07
7.29219e-08
-4.55303e-07
7.18232e-08
-4.73e-07
7.06137e-08
-4.90377e-07
6.93061e-08
-5.07411e-07
6.79125e-08
-5.24085e-07
6.64442e-08
-5.4038e-07
6.4912e-08
-5.56284e-07
6.33262e-08
-5.71786e-07
6.16962e-08
-5.86876e-07
6.00309e-08
-6.01546e-07
5.83385e-08
-6.15792e-07
5.66266e-08
-6.2961e-07
5.49021e-08
-6.42997e-07
5.31716e-08
-6.55953e-07
5.14407e-08
-6.6848e-07
4.97147e-08
-6.80578e-07
4.79983e-08
-6.92251e-07
4.62957e-08
-7.03502e-07
4.46105e-08
-7.14337e-07
4.2946e-08
-7.24761e-07
4.13048e-08
-7.34779e-07
3.96893e-08
-7.44398e-07
3.81013e-08
-7.53625e-07
3.65425e-08
-7.62468e-07
3.50138e-08
-7.70932e-07
3.35161e-08
-7.79027e-07
3.20498e-08
-7.86759e-07
3.06152e-08
-7.94136e-07
2.9212e-08
-8.01166e-07
2.784e-08
-8.07856e-07
2.64983e-08
-8.14213e-07
2.51862e-08
-8.20243e-07
2.39026e-08
-8.25954e-07
2.26461e-08
-8.31351e-07
2.14152e-08
-8.36441e-07
2.02083e-08
-8.41228e-07
1.90237e-08
-8.45718e-07
1.78591e-08
-8.49915e-07
1.67127e-08
-8.53823e-07
1.55821e-08
-8.57445e-07
1.4465e-08
-8.60783e-07
1.3359e-08
-8.6384e-07
1.22614e-08
-8.66618e-07
1.11696e-08
-8.69116e-07
1.0081e-08
-8.71335e-07
8.99283e-09
-8.73274e-07
7.90216e-09
-8.74932e-07
6.80617e-09
-8.76307e-07
5.70195e-09
-8.77396e-07
4.58657e-09
-8.78196e-07
3.45709e-09
-8.78703e-07
2.31055e-09
-8.78911e-07
1.14401e-09
-8.78815e-07
-4.54469e-11
-8.7841e-07
-1.26072e-09
-8.77686e-07
-2.50466e-09
-8.76638e-07
-3.78006e-09
-8.75257e-07
-5.08962e-09
-8.73534e-07
-6.43598e-09
-8.7146e-07
-7.82167e-09
-8.69023e-07
-9.24908e-09
-8.66215e-07
-1.07205e-08
-8.63023e-07
-1.22379e-08
-8.59435e-07
-1.38034e-08
-8.55441e-07
-1.54185e-08
-8.51028e-07
-1.70848e-08
-8.46183e-07
-1.88035e-08
-8.40894e-07
-2.05755e-08
-8.35147e-07
-2.24015e-08
-8.28929e-07
-2.42818e-08
-8.22228e-07
-2.62163e-08
-8.15031e-07
-2.82045e-08
-8.07326e-07
-3.02455e-08
-7.99099e-07
-3.23381e-08
-7.90341e-07
-3.44804e-08
-7.81039e-07
-3.667e-08
-7.71183e-07
-3.8904e-08
-7.60763e-07
-4.1179e-08
-7.49772e-07
-4.34909e-08
-7.38202e-07
-4.58349e-08
-7.26048e-07
-4.82056e-08
-7.13304e-07
-5.0597e-08
-6.99968e-07
-5.30021e-08
-6.86039e-07
-5.54135e-08
-6.71519e-07
-5.78228e-08
-6.5641e-07
-6.02209e-08
-6.40719e-07
-6.25979e-08
-6.24455e-07
-6.49431e-08
-6.07627e-07
-6.72452e-08
-5.90251e-07
-6.94919e-08
-5.72344e-07
-7.16701e-08
-5.53926e-07
-7.37661e-08
-5.35022e-07
-7.57654e-08
-5.1566e-07
-7.76529e-08
-4.9587e-07
-7.94127e-08
-4.75688e-07
-8.10285e-08
-4.55155e-07
-8.24833e-08
-4.34313e-07
-8.37599e-08
-4.1321e-07
-8.48404e-08
-3.91898e-07
-8.5707e-08
-3.70434e-07
-8.63414e-08
-3.48877e-07
-8.67255e-08
-3.27293e-07
-8.68414e-08
-3.05749e-07
-8.66713e-08
-2.84319e-07
-8.61979e-08
-2.63079e-07
-8.54046e-08
-2.42107e-07
-8.42757e-08
-2.21487e-07
-8.27968e-08
-2.01304e-07
-8.09548e-08
-1.81645e-07
-7.87385e-08
-1.62599e-07
-7.61391e-08
-1.44255e-07
-7.31507e-08
-1.26703e-07
-6.97705e-08
-1.1003e-07
-6.60003e-08
-9.43229e-08
-6.1847e-08
-7.96629e-08
-5.7324e-08
-6.61261e-08
-5.24525e-08
-5.37809e-08
-4.72638e-08
-4.26856e-08
-4.18017e-08
-3.28859e-08
-3.61255e-08
-2.44121e-08
-3.03141e-08
-1.72756e-08
-2.44709e-08
-1.14655e-08
-1.87306e-08
-6.94594e-09
-1.32666e-08
-3.65194e-09
-8.30111e-09
-1.48763e-09
-4.11497e-09
-3.24305e-10
-1.06031e-09
3.92699e-10
-4.29705e-10
2.20199e-12
-1.83508e-09
2.13551e-09
-4.32069e-09
5.81564e-09
-7.97161e-09
1.06011e-08
-1.28509e-08
1.61528e-08
-1.8999e-08
2.21953e-08
-2.64351e-08
2.85067e-08
-3.51584e-08
3.49109e-08
-4.51506e-08
4.12693e-08
-5.63782e-08
4.74739e-08
-6.87945e-08
5.34421e-08
-8.23426e-08
5.91115e-08
-9.69569e-08
6.44361e-08
-1.12566e-07
6.93835e-08
-1.29092e-07
7.39323e-08
-1.46457e-07
7.80698e-08
-1.64578e-07
8.17905e-08
-1.83373e-07
8.50946e-08
-2.0276e-07
8.7987e-08
-2.22658e-07
9.04763e-08
-2.42988e-07
9.25741e-08
-2.63673e-07
9.42943e-08
-2.84639e-07
9.56528e-08
-3.05814e-07
9.66664e-08
-3.27131e-07
9.73534e-08
-3.48525e-07
9.77325e-08
-3.69936e-07
9.78229e-08
-3.91307e-07
9.76439e-08
-4.12585e-07
9.72149e-08
-4.33722e-07
9.6555e-08
-4.54672e-07
9.56832e-08
-4.75393e-07
9.46179e-08
-4.95848e-07
9.33771e-08
-5.16003e-07
9.19781e-08
-5.35827e-07
9.04377e-08
-5.55293e-07
8.87719e-08
-5.74376e-07
8.69959e-08
-5.93056e-07
8.51242e-08
-6.11315e-07
8.31705e-08
-6.29136e-07
8.11478e-08
-6.46508e-07
7.9068e-08
-6.6342e-07
7.69425e-08
-6.79863e-07
7.47818e-08
-6.95832e-07
7.25954e-08
-7.11322e-07
7.03924e-08
-7.26332e-07
6.81809e-08
-7.40859e-07
6.59682e-08
-7.54905e-07