/*--------------------------------*- C++ -*----------------------------------*\
  =========                 |
  \\      /  F ield         | OpenFOAM: The Open Source CFD Toolbox
   \\    /   O peration     | Website:  https://openfoam.org
    \\  /    A nd           | Version:  7
     \\/     M anipulation  |
\*---------------------------------------------------------------------------*/
FoamFile
{
    version     2.0;
    format      ascii;
    class       volVectorField;
    location    "0.2";
    object      U;
}
// * * * * * * * * * * * * * * * * * * * * * * * * * * * * * * * * * * * * * //

dimensions      [0 1 -1 0 0 0 0];

internalField   nonuniform List<vector> 
12800
(
(8.32754e-06 -8.31949e-06 0)
(3.70879e-05 -1.85293e-05 0)
(7.85284e-05 -1.97085e-05 0)
(0.000113236 -1.53512e-05 0)
(0.000129977 -8.30908e-06 0)
(0.000123862 -1.37431e-07 0)
(9.27469e-05 8.34388e-06 0)
(3.60186e-05 1.66953e-05 0)
(-4.59654e-05 2.46839e-05 0)
(-0.000152258 3.21898e-05 0)
(-0.000281561 3.91534e-05 0)
(-0.000432366 4.55498e-05 0)
(-0.000603052 5.1374e-05 0)
(-0.000791941 5.66323e-05 0)
(-0.000997344 6.13383e-05 0)
(-0.00121758 6.55113e-05 0)
(-0.00145102 6.91728e-05 0)
(-0.00169605 7.23463e-05 0)
(-0.00195115 7.50564e-05 0)
(-0.00221485 7.73287e-05 0)
(-0.00248575 7.91889e-05 0)
(-0.00276252 8.06623e-05 0)
(-0.00304391 8.17739e-05 0)
(-0.00332876 8.25487e-05 0)
(-0.00361595 8.30115e-05 0)
(-0.00390447 8.31859e-05 0)
(-0.00419338 8.30949e-05 0)
(-0.00448179 8.27604e-05 0)
(-0.00476891 8.22042e-05 0)
(-0.00505399 8.14469e-05 0)
(-0.00533637 8.05081e-05 0)
(-0.00561545 7.94065e-05 0)
(-0.00589068 7.81601e-05 0)
(-0.00616158 7.67857e-05 0)
(-0.00642772 7.52994e-05 0)
(-0.00668872 7.37161e-05 0)
(-0.00694426 7.205e-05 0)
(-0.00719405 7.03143e-05 0)
(-0.00743786 6.85213e-05 0)
(-0.0076755 6.66823e-05 0)
(-0.0079068 6.4808e-05 0)
(-0.00813166 6.2908e-05 0)
(-0.00834996 6.09913e-05 0)
(-0.00856167 5.90659e-05 0)
(-0.00876674 5.71394e-05 0)
(-0.00896518 5.52184e-05 0)
(-0.00915698 5.33088e-05 0)
(-0.0093422 5.14159e-05 0)
(-0.00952088 4.95445e-05 0)
(-0.0096931 4.76986e-05 0)
(-0.00985893 4.58819e-05 0)
(-0.0100185 4.40974e-05 0)
(-0.0101718 4.23475e-05 0)
(-0.0103191 4.06342e-05 0)
(-0.0104605 3.89591e-05 0)
(-0.010596 3.73235e-05 0)
(-0.0107258 3.57281e-05 0)
(-0.0108501 3.41734e-05 0)
(-0.0109689 3.26595e-05 0)
(-0.0110825 3.1186e-05 0)
(-0.0111909 2.97525e-05 0)
(-0.0112943 2.83581e-05 0)
(-0.0113927 2.70019e-05 0)
(-0.0114865 2.56825e-05 0)
(-0.0115755 2.43983e-05 0)
(-0.01166 2.31476e-05 0)
(-0.0117401 2.19285e-05 0)
(-0.0118159 2.0739e-05 0)
(-0.0118874 1.95767e-05 0)
(-0.0119548 1.84393e-05 0)
(-0.0120182 1.73242e-05 0)
(-0.0120775 1.62287e-05 0)
(-0.012133 1.515e-05 0)
(-0.0121845 1.40853e-05 0)
(-0.0122322 1.30313e-05 0)
(-0.0122761 1.19853e-05 0)
(-0.0123162 1.09439e-05 0)
(-0.0123525 9.90386e-06 0)
(-0.0123851 8.86187e-06 0)
(-0.0124138 7.81452e-06 0)
(-0.0124387 6.75844e-06 0)
(-0.0124598 5.69024e-06 0)
(-0.012477 4.60645e-06 0)
(-0.0124902 3.50352e-06 0)
(-0.0124994 2.37788e-06 0)
(-0.0125044 1.22597e-06 0)
(-0.0125053 4.4279e-08 0)
(-0.0125018 -1.17065e-06 0)
(-0.0124938 -2.42219e-06 0)
(-0.0124813 -3.71365e-06 0)
(-0.0124641 -5.04834e-06 0)
(-0.012442 -6.4295e-06 0)
(-0.0124148 -7.8603e-06 0)
(-0.0123825 -9.34373e-06 0)
(-0.0123448 -1.08826e-05 0)
(-0.0123015 -1.24795e-05 0)
(-0.0122524 -1.41369e-05 0)
(-0.0121973 -1.58569e-05 0)
(-0.012136 -1.76416e-05 0)
(-0.0120683 -1.94926e-05 0)
(-0.0119939 -2.14113e-05 0)
(-0.0119127 -2.33986e-05 0)
(-0.0118243 -2.54551e-05 0)
(-0.0117286 -2.75812e-05 0)
(-0.0116254 -2.97764e-05 0)
(-0.0115144 -3.204e-05 0)
(-0.0113953 -3.43705e-05 0)
(-0.0112681 -3.6766e-05 0)
(-0.0111323 -3.92239e-05 0)
(-0.010988 -4.17409e-05 0)
(-0.0108349 -4.43133e-05 0)
(-0.0106727 -4.69361e-05 0)
(-0.0105015 -4.96039e-05 0)
(-0.010321 -5.23103e-05 0)
(-0.0101311 -5.5048e-05 0)
(-0.00993182 -5.78087e-05 0)
(-0.00972304 -6.05835e-05 0)
(-0.00950477 -6.33621e-05 0)
(-0.00927704 -6.61335e-05 0)
(-0.0090399 -6.88856e-05 0)
(-0.00879347 -7.16053e-05 0)
(-0.00853791 -7.42782e-05 0)
(-0.00827341 -7.6889e-05 0)
(-0.00800024 -7.94216e-05 0)
(-0.00771872 -8.18586e-05 0)
(-0.00742922 -8.41815e-05 0)
(-0.00713219 -8.63712e-05 0)
(-0.00682812 -8.84074e-05 0)
(-0.00651761 -9.02688e-05 0)
(-0.0062013 -9.19334e-05 0)
(-0.00587991 -9.33784e-05 0)
(-0.00555425 -9.45802e-05 0)
(-0.00522519 -9.55147e-05 0)
(-0.00489369 -9.61572e-05 0)
(-0.00456081 -9.64824e-05 0)
(-0.00422765 -9.64647e-05 0)
(-0.00389543 -9.60785e-05 0)
(-0.00356545 -9.52975e-05 0)
(-0.00323905 -9.40958e-05 0)
(-0.00291771 -9.24472e-05 0)
(-0.00260295 -9.03261e-05 0)
(-0.00229637 -8.77069e-05 0)
(-0.00199965 -8.45649e-05 0)
(-0.00171453 -8.08761e-05 0)
(-0.00144282 -7.66173e-05 0)
(-0.00118637 -7.17669e-05 0)
(-0.000947075 -6.63058e-05 0)
(-0.00072685 -6.02179e-05 0)
(-0.000527618 -5.34914e-05 0)
(-0.000351273 -4.61219e-05 0)
(-0.000199638 -3.81179e-05 0)
(-7.44027e-05 -2.95081e-05 0)
(2.29754e-05 -2.03562e-05 0)
(9.14221e-05 -1.07907e-05 0)
(0.000130508 -1.06211e-06 0)
(0.000140865 8.35073e-06 0)
(0.000124809 1.65446e-05 0)
(8.77021e-05 2.17878e-05 0)
(4.20358e-05 2.08592e-05 0)
(9.63157e-06 9.63193e-06 0)
(1.8556e-05 -3.70805e-05 0)
(7.03545e-05 -7.02842e-05 0)
(0.000132045 -6.77459e-05 0)
(0.000170143 -4.20788e-05 0)
(0.000163363 -3.14622e-06 0)
(0.000100272 4.27183e-05 0)
(-2.539e-05 9.15488e-05 0)
(-0.000216361 0.000140864 0)
(-0.000472853 0.000189117 0)
(-0.000793361 0.000235347 0)
(-0.00117524 0.000278963 0)
(-0.0016151 0.00031961 0)
(-0.00210907 0.000357092 0)
(-0.002653 0.000391319 0)
(-0.00324258 0.000422273 0)
(-0.00387345 0.000449991 0)
(-0.00454127 0.000474542 0)
(-0.0052418 0.000496025 0)
(-0.00597088 0.000514556 0)
(-0.0067245 0.000530263 0)
(-0.00749883 0.000543285 0)
(-0.0082902 0.000553764 0)
(-0.00909512 0.000561847 0)
(-0.00991033 0.000567683 0)
(-0.0107327 0.000571421 0)
(-0.0115594 0.000573206 0)
(-0.0123878 0.000573184 0)
(-0.0132152 0.000571495 0)
(-0.0140395 0.000568277 0)
(-0.0148586 0.000563665 0)
(-0.0156704 0.000557787 0)
(-0.0164733 0.000550765 0)
(-0.0172656 0.00054272 0)
(-0.0180461 0.000533762 0)
(-0.0188133 0.000524001 0)
(-0.0195663 0.000513536 0)
(-0.0203039 0.000502465 0)
(-0.0210255 0.000490876 0)
(-0.0217302 0.000478854 0)
(-0.0224176 0.000466477 0)
(-0.023087 0.000453818 0)
(-0.0237382 0.000440945 0)
(-0.0243708 0.00042792 0)
(-0.0249846 0.000414799 0)
(-0.0255796 0.000401636 0)
(-0.0261556 0.000388476 0)
(-0.0267126 0.000375362 0)
(-0.0272509 0.000362333 0)
(-0.0277703 0.000349422 0)
(-0.0282712 0.000336659 0)
(-0.0287538 0.00032407 0)
(-0.0292183 0.000311677 0)
(-0.0296649 0.000299498 0)
(-0.0300941 0.00028755 0)
(-0.030506 0.000275844 0)
(-0.0309012 0.00026439 0)
(-0.0312798 0.000253194 0)
(-0.0316423 0.000242262 0)
(-0.031989 0.000231594 0)
(-0.0323204 0.00022119 0)
(-0.0326367 0.000211048 0)
(-0.0329384 0.000201162 0)
(-0.0332258 0.000191528 0)
(-0.0334992 0.000182135 0)
(-0.033759 0.000172975 0)
(-0.0340056 0.000164037 0)
(-0.0342391 0.000155307 0)
(-0.03446 0.000146773 0)
(-0.0346684 0.00013842 0)
(-0.0348646 0.000130231 0)
(-0.0350489 0.000122189 0)
(-0.0352214 0.000114276 0)
(-0.0353822 0.000106474 0)
(-0.0355316 9.87634e-05 0)
(-0.0356697 9.11235e-05 0)
(-0.0357965 8.35336e-05 0)
(-0.0359121 7.59722e-05 0)
(-0.0360165 6.84177e-05 0)
(-0.0361097 6.08475e-05 0)
(-0.0361917 5.32389e-05 0)
(-0.0362623 4.55689e-05 0)
(-0.0363216 3.78139e-05 0)
(-0.0363692 2.99508e-05 0)
(-0.0364052 2.19559e-05 0)
(-0.0364292 1.38057e-05 0)
(-0.0364411 5.47662e-06 0)
(-0.0364405 -3.05473e-06 0)
(-0.0364271 -1.18115e-05 0)
(-0.0364007 -2.08164e-05 0)
(-0.0363608 -3.00916e-05 0)
(-0.036307 -3.96588e-05 0)
(-0.0362389 -4.95392e-05 0)
(-0.0361561 -5.97531e-05 0)
(-0.036058 -7.03197e-05 0)
(-0.0359442 -8.1257e-05 0)
(-0.0358141 -9.25819e-05 0)
(-0.0356671 -0.00010431 0)
(-0.0355027 -0.000116454 0)
(-0.0353202 -0.000129027 0)
(-0.0351191 -0.000142039 0)
(-0.0348987 -0.000155496 0)
(-0.0346584 -0.000169404 0)
(-0.0343975 -0.000183765 0)
(-0.0341155 -0.000198579 0)
(-0.0338117 -0.000213842 0)
(-0.0334854 -0.000229545 0)
(-0.0331361 -0.000245679 0)
(-0.0327632 -0.000262227 0)
(-0.0323661 -0.00027917 0)
(-0.0319442 -0.000296484 0)
(-0.0314972 -0.000314139 0)
(-0.0310245 -0.000332102 0)
(-0.0305258 -0.000350334 0)
(-0.0300008 -0.000368788 0)
(-0.0294491 -0.000387414 0)
(-0.0288706 -0.000406154 0)
(-0.0282653 -0.000424945 0)
(-0.0276331 -0.000443718 0)
(-0.0269742 -0.000462395 0)
(-0.0262887 -0.000480894 0)
(-0.025577 -0.000499125 0)
(-0.0248397 -0.000516991 0)
(-0.0240773 -0.000534389 0)
(-0.0232906 -0.000551209 0)
(-0.0224806 -0.000567334 0)
(-0.0216483 -0.000582642 0)
(-0.0207951 -0.000597004 0)
(-0.0199225 -0.000610284 0)
(-0.019032 -0.000622343 0)
(-0.0181257 -0.000633036 0)
(-0.0172055 -0.000642213 0)
(-0.0162737 -0.00064972 0)
(-0.0153329 -0.000655401 0)
(-0.0143859 -0.000659097 0)
(-0.0134354 -0.000660647 0)
(-0.0124848 -0.000659888 0)
(-0.0115374 -0.00065666 0)
(-0.0105968 -0.0006508 0)
(-0.00966695 -0.000642152 0)
(-0.00875176 -0.000630561 0)
(-0.00785552 -0.000615878 0)
(-0.00698264 -0.000597961 0)
(-0.00613774 -0.000576678 0)
(-0.00532556 -0.00055191 0)
(-0.00455097 -0.000523554 0)
(-0.00381893 -0.000491529 0)
(-0.00313447 -0.000455784 0)
(-0.00250256 -0.000416306 0)
(-0.00192813 -0.000373139 0)
(-0.00141588 -0.000326402 0)
(-0.000970178 -0.000276328 0)
(-0.000594846 -0.000223317 0)
(-0.000292862 -0.000168023 0)
(-6.59469e-05 -0.000111502 0)
(8.6076e-05 -5.54473e-05 0)
(0.000166177 -2.59287e-06 0)
(0.00018124 4.26604e-05 0)
(0.00014393 7.32245e-05 0)
(7.79582e-05 7.79274e-05 0)
(2.08572e-05 4.20253e-05 0)
(1.98039e-05 -7.86195e-05 0)
(6.81023e-05 -0.000132071 0)
(0.000111193 -0.000110646 0)
(0.00011038 -3.94393e-05 0)
(4.0404e-05 6.29719e-05 0)
(-0.000113588 0.000183373 0)
(-0.000360491 0.000312618 0)
(-0.000704703 0.000444499 0)
(-0.00114717 0.000574837 0)
(-0.00168633 0.000700839 0)
(-0.00231885 0.000820656 0)
(-0.00304013 0.000933094 0)
(-0.00384476 0.00103741 0)
(-0.00472675 0.00113319 0)
(-0.00567978 0.00122025 0)
(-0.00669737 0.00129858 0)
(-0.00777301 0.00136827 0)
(-0.00890021 0.00142952 0)
(-0.0100726 0.00148259 0)
(-0.0112841 0.0015278 0)
(-0.0125286 0.00156548 0)
(-0.0138005 0.00159602 0)
(-0.0150944 0.00161978 0)
(-0.016405 0.00163718 0)
(-0.0177275 0.0016486 0)
(-0.0190574 0.00165444 0)
(-0.0203903 0.00165512 0)
(-0.0217223 0.001651 0)
(-0.0230497 0.00164249 0)
(-0.0243692 0.00162994 0)
(-0.0256777 0.00161373 0)
(-0.0269723 0.0015942 0)
(-0.0282505 0.00157168 0)
(-0.02951 0.00154649 0)
(-0.0307488 0.00151895 0)
(-0.031965 0.00148933 0)
(-0.0331571 0.00145792 0)
(-0.0343237 0.00142496 0)
(-0.0354635 0.00139071 0)
(-0.0365757 0.00135538 0)
(-0.0376594 0.0013192 0)
(-0.038714 0.00128234 0)
(-0.0397389 0.001245 0)
(-0.0407338 0.00120733 0)
(-0.0416984 0.00116949 0)
(-0.0426327 0.00113162 0)
(-0.0435366 0.00109384 0)
(-0.0444102 0.00105627 0)
(-0.0452537 0.00101899 0)
(-0.0460673 0.000982102 0)
(-0.0468514 0.00094568 0)
(-0.0476062 0.00090979 0)
(-0.0483324 0.000874487 0)
(-0.0490302 0.000839817 0)
(-0.0497002 0.000805819 0)
(-0.050343 0.000772521 0)
(-0.050959 0.000739944 0)
(-0.0515489 0.000708102 0)
(-0.0521132 0.000677002 0)
(-0.0526525 0.000646643 0)
(-0.0531674 0.000617019 0)
(-0.0536585 0.000588118 0)
(-0.0541263 0.000559924 0)
(-0.0545713 0.000532414 0)
(-0.0549941 0.000505561 0)
(-0.0553952 0.000479334 0)
(-0.0557751 0.000453699 0)
(-0.0561342 0.000428615 0)
(-0.056473 0.000404042 0)
(-0.0567917 0.000379934 0)
(-0.0570909 0.000356242 0)
(-0.0573707 0.000332915 0)
(-0.0576314 0.000309901 0)
(-0.0578734 0.000287143 0)
(-0.0580967 0.000264584 0)
(-0.0583014 0.000242164 0)
(-0.0584877 0.000219823 0)
(-0.0586556 0.000197497 0)
(-0.0588051 0.000175122 0)
(-0.0589361 0.000152635 0)
(-0.0590486 0.000129968 0)
(-0.0591422 0.000107056 0)
(-0.0592168 8.38323e-05 0)
(-0.0592722 6.02289e-05 0)
(-0.0593079 3.61793e-05 0)
(-0.0593237 1.16165e-05 0)
(-0.059319 -1.35258e-05 0)
(-0.0592934 -3.93131e-05 0)
(-0.0592464 -6.58098e-05 0)
(-0.0591773 -9.3079e-05 0)
(-0.0590855 -0.000121182 0)
(-0.0589704 -0.000150178 0)
(-0.0588312 -0.000180124 0)
(-0.0586671 -0.000211073 0)
(-0.0584773 -0.000243077 0)
(-0.058261 -0.00027618 0)
(-0.0580172 -0.000310427 0)
(-0.0577452 -0.000345855 0)
(-0.0574438 -0.000382495 0)
(-0.0571122 -0.000420373 0)
(-0.0567494 -0.00045951 0)
(-0.0563543 -0.000499916 0)
(-0.0559261 -0.000541597 0)
(-0.0554636 -0.000584548 0)
(-0.054966 -0.000628754 0)
(-0.0544322 -0.000674193 0)
(-0.0538613 -0.000720828 0)
(-0.0532524 -0.000768614 0)
(-0.0526046 -0.000817492 0)
(-0.0519171 -0.00086739 0)
(-0.0511892 -0.000918221 0)
(-0.0504203 -0.000969885 0)
(-0.0496096 -0.00102227 0)
(-0.0487568 -0.00107523 0)
(-0.0478615 -0.00112864 0)
(-0.0469235 -0.00118231 0)
(-0.0459426 -0.00123608 0)
(-0.0449189 -0.00128972 0)
(-0.0438526 -0.00134304 0)
(-0.0427442 -0.00139578 0)
(-0.0415942 -0.00144769 0)
(-0.0404035 -0.00149849 0)
(-0.0391731 -0.00154789 0)
(-0.0379044 -0.00159558 0)
(-0.0365987 -0.00164122 0)
(-0.0352581 -0.00168445 0)
(-0.0338845 -0.00172493 0)
(-0.0324803 -0.00176226 0)
(-0.0310483 -0.00179606 0)
(-0.0295915 -0.0018259 0)
(-0.0281132 -0.00185137 0)
(-0.026617 -0.00187205 0)
(-0.025107 -0.00188748 0)
(-0.0235874 -0.00189724 0)
(-0.0220631 -0.00190086 0)
(-0.0205391 -0.00189792 0)
(-0.0190206 -0.00188795 0)
(-0.0175134 -0.00187053 0)
(-0.0160235 -0.00184523 0)
(-0.0145573 -0.00181163 0)
(-0.0131213 -0.00176936 0)
(-0.0117225 -0.00171804 0)
(-0.010368 -0.00165735 0)
(-0.00906514 -0.00158701 0)
(-0.00782132 -0.0015068 0)
(-0.0066441 -0.00141657 0)
(-0.00554106 -0.00131628 0)
(-0.00451963 -0.00120602 0)
(-0.00358704 -0.00108606 0)
(-0.00275007 -0.000956918 0)
(-0.00201487 -0.000819461 0)
(-0.00138661 -0.000675039 0)
(-0.000869069 -0.00052571 0)
(-0.000464032 -0.000374562 0)
(-0.000170505 -0.000226208 0)
(1.63455e-05 -8.75188e-05 0)
(0.000106359 3.13249e-05 0)
(0.000116053 0.000115501 0)
(7.35258e-05 0.000143965 0)
(2.18415e-05 8.77333e-05 0)
(1.55778e-05 -0.000113652 0)
(4.29151e-05 -0.000170634 0)
(4.08798e-05 -0.000110037 0)
(-2.81403e-05 2.97514e-05 0)
(-0.000189837 0.000221197 0)
(-0.000460398 0.000443867 0)
(-0.000849893 0.000682894 0)
(-0.00136355 0.000927687 0)
(-0.00200275 0.00117078 0)
(-0.00276589 0.00140694 0)
(-0.00364918 0.00163256 0)
(-0.00464724 0.00184521 0)
(-0.00575349 0.0020433 0)
(-0.00696058 0.00222583 0)
(-0.00826064 0.00239232 0)
(-0.0096455 0.00254257 0)
(-0.0111069 0.00267666 0)
(-0.0126364 0.00279487 0)
(-0.014226 0.00289762 0)
(-0.0158675 0.00298541 0)
(-0.0175532 0.00305886 0)
(-0.0192757 0.00311861 0)
(-0.0210276 0.00316537 0)
(-0.0228024 0.00319987 0)
(-0.0245933 0.00322283 0)
(-0.0263945 0.00323501 0)
(-0.0282002 0.00323716 0)
(-0.0300051 0.00323001 0)
(-0.0318042 0.00321428 0)
(-0.0335931 0.00319069 0)
(-0.0353676 0.00315993 0)
(-0.0371238 0.00312266 0)
(-0.0388584 0.00307953 0)
(-0.0405682 0.00303116 0)
(-0.0422503 0.00297812 0)
(-0.0439024 0.00292099 0)
(-0.0455223 0.00286028 0)
(-0.0471081 0.00279651 0)
(-0.0486581 0.00273014 0)
(-0.050171 0.0026616 0)
(-0.0516456 0.00259132 0)
(-0.053081 0.00251967 0)
(-0.0544765 0.00244701 0)
(-0.0558316 0.00237365 0)
(-0.057146 0.0022999 0)
(-0.0584193 0.00222603 0)
(-0.0596516 0.00215227 0)
(-0.0608429 0.00207885 0)
(-0.0619935 0.00200597 0)
(-0.0631036 0.0019338 0)
(-0.0641737 0.00186249 0)
(-0.0652042 0.00179217 0)
(-0.0661956 0.00172295 0)
(-0.0671486 0.00165493 0)
(-0.0680638 0.00158819 0)
(-0.0689419 0.00152277 0)
(-0.0697836 0.00145873 0)
(-0.0705896 0.00139609 0)
(-0.0713608 0.00133487 0)
(-0.0720978 0.00127507 0)
(-0.0728015 0.00121668 0)
(-0.0734726 0.00115967 0)
(-0.0741119 0.00110403 0)
(-0.07472 0.0010497 0)
(-0.0752977 0.000996634 0)
(-0.0758456 0.000944773 0)
(-0.0763643 0.00089405 0)
(-0.0768546 0.000844391 0)
(-0.0773168 0.000795714 0)
(-0.0777516 0.000747932 0)
(-0.0781594 0.000700952 0)
(-0.0785406 0.000654675 0)
(-0.0788955 0.000608997 0)
(-0.0792245 0.000563812 0)
(-0.0795278 0.000519007 0)
(-0.0798055 0.000474468 0)
(-0.0800578 0.000430076 0)
(-0.0802848 0.000385709 0)
(-0.0804863 0.000341244 0)
(-0.0806623 0.000296555 0)
(-0.0808126 0.000251515 0)
(-0.080937 0.000205996 0)
(-0.0810353 0.000159867 0)
(-0.0811069 0.000113 0)
(-0.0811516 6.52638e-05 0)
(-0.0811687 1.65304e-05 0)
(-0.0811577 -3.33285e-05 0)
(-0.081118 -8.44391e-05 0)
(-0.0810487 -0.000136926 0)
(-0.0809492 -0.000190909 0)
(-0.0808185 -0.000246508 0)
(-0.0806558 -0.000303835 0)
(-0.0804601 -0.000363 0)
(-0.0802303 -0.000424103 0)
(-0.0799654 -0.000487243 0)
(-0.0796643 -0.000552507 0)
(-0.0793257 -0.000619975 0)
(-0.0789484 -0.000689717 0)
(-0.0785312 -0.000761794 0)
(-0.0780728 -0.000836253 0)
(-0.0775719 -0.000913128 0)
(-0.0770272 -0.00099244 0)
(-0.0764374 -0.00107419 0)
(-0.0758012 -0.00115838 0)
(-0.0751173 -0.00124496 0)
(-0.0743844 -0.0013339 0)
(-0.0736012 -0.00142511 0)
(-0.0727667 -0.0015185 0)
(-0.0718796 -0.00161397 0)
(-0.0709389 -0.00171135 0)
(-0.0699437 -0.00181049 0)
(-0.0688931 -0.00191118 0)
(-0.0677863 -0.0020132 0)
(-0.0666229 -0.00211628 0)
(-0.0654022 -0.00222013 0)
(-0.0641242 -0.00232444 0)
(-0.0627885 -0.00242884 0)
(-0.0613955 -0.00253294 0)
(-0.0599455 -0.00263631 0)
(-0.058439 -0.00273848 0)
(-0.0568769 -0.00283895 0)
(-0.0552604 -0.0029372 0)
(-0.0535909 -0.00303264 0)
(-0.0518702 -0.00312467 0)
(-0.0501004 -0.00321264 0)
(-0.0482841 -0.0032959 0)
(-0.0464239 -0.00337372 0)
(-0.0445232 -0.00344537 0)
(-0.0425857 -0.0035101 0)
(-0.0406153 -0.00356712 0)
(-0.0386166 -0.00361563 0)
(-0.0365945 -0.0036548 0)
(-0.0345543 -0.00368379 0)
(-0.0325019 -0.00370178 0)
(-0.0304435 -0.0037079 0)
(-0.0283858 -0.00370133 0)
(-0.0263359 -0.00368121 0)
(-0.0243015 -0.00364675 0)
(-0.0222904 -0.00359716 0)
(-0.020311 -0.00353167 0)
(-0.018372 -0.00344958 0)
(-0.0164824 -0.00335027 0)
(-0.0146516 -0.00323315 0)
(-0.0128889 -0.00309777 0)
(-0.0112041 -0.0029438 0)
(-0.00960693 -0.00277107 0)
(-0.00810688 -0.00257964 0)
(-0.00671341 -0.00236982 0)
(-0.00543552 -0.00214231 0)
(-0.00428158 -0.0018983 0)
(-0.00325903 -0.00163965 0)
(-0.00237397 -0.00136912 0)
(-0.00163068 -0.00109074 0)
(-0.00103097 -0.000810306 0)
(-0.000573347 -0.000536102 0)
(-0.000252044 -0.000279873 0)
(-5.58795e-05 -5.81782e-05 0)
(3.31639e-05 0.000106083 0)
(4.35513e-05 0.000181811 0)
(1.67311e-05 0.000125112 0)
(8.69398e-06 -0.000131021 0)
(4.48607e-06 -0.000164765 0)
(-6.07525e-05 -4.06538e-05 0)
(-0.00021873 0.00019128 0)
(-0.000492943 0.000495193 0)
(-0.000899372 0.000843841 0)
(-0.00144808 0.00121677 0)
(-0.00214432 0.0015989 0)
(-0.0029894 0.00197925 0)
(-0.00398155 0.00234986 0)
(-0.00511654 0.00270506 0)
(-0.00638829 0.00304087 0)
(-0.00778936 0.00335462 0)
(-0.00931131 0.00364457 0)
(-0.010945 0.00390972 0)
(-0.012681 0.00414962 0)
(-0.0145094 0.00436425 0)
(-0.0164205 0.00455392 0)
(-0.0184045 0.00471915 0)
(-0.0204519 0.00486069 0)
(-0.0225532 0.00497942 0)
(-0.0246994 0.00507631 0)
(-0.026882 0.00515242 0)
(-0.0290926 0.00520887 0)
(-0.0313233 0.00524679 0)
(-0.0335667 0.00526735 0)
(-0.035816 0.00527173 0)
(-0.0380645 0.00526107 0)
(-0.0403062 0.00523654 0)
(-0.0425355 0.00519926 0)
(-0.0447473 0.00515032 0)
(-0.0469368 0.00509078 0)
(-0.0490999 0.00502169 0)
(-0.0512325 0.00494403 0)
(-0.0533312 0.00485874 0)
(-0.055393 0.00476672 0)
(-0.0574151 0.00466883 0)
(-0.0593952 0.00456588 0)
(-0.0613311 0.00445862 0)
(-0.0632212 0.00434777 0)
(-0.0650639 0.004234 0)
(-0.0668582 0.00411792 0)
(-0.068603 0.00400011 0)
(-0.0702978 0.00388109 0)
(-0.0719419 0.00376134 0)
(-0.0735352 0.00364132 0)
(-0.0750775 0.00352141 0)
(-0.0765689 0.00340199 0)
(-0.0780096 0.00328336 0)
(-0.0793999 0.00316581 0)
(-0.0807403 0.0030496 0)
(-0.0820314 0.00293495 0)
(-0.0832738 0.00282202 0)
(-0.0844681 0.00271099 0)
(-0.0856153 0.00260197 0)
(-0.0867161 0.00249507 0)
(-0.0877714 0.00239035 0)
(-0.0887821 0.00228787 0)
(-0.0897491 0.00218765 0)
(-0.0906733 0.00208971 0)
(-0.0915557 0.00199402 0)
(-0.0923972 0.00190056 0)
(-0.0931987 0.00180927 0)
(-0.093961 0.00172009 0)
(-0.0946851 0.00163294 0)
(-0.0953717 0.00154772 0)
(-0.0960217 0.00146433 0)
(-0.0966357 0.00138265 0)
(-0.0972145 0.00130254 0)
(-0.0977586 0.00122387 0)
(-0.0982686 0.00114649 0)
(-0.098745 0.00107024 0)
(-0.0991883 0.000994948 0)
(-0.0995989 0.000920446 0)
(-0.0999769 0.000846552 0)
(-0.100323 0.00077308 0)
(-0.100636 0.00069984 0)
(-0.100918 0.000626635 0)
(-0.101167 0.000553266 0)
(-0.101384 0.00047953 0)
(-0.101569 0.000405222 0)
(-0.10172 0.000330134 0)
(-0.101839 0.000254058 0)
(-0.101924 0.000176786 0)
(-0.101975 9.81069e-05 0)
(-0.101992 1.78145e-05 0)
(-0.101972 -6.42973e-05 0)
(-0.101917 -0.000148432 0)
(-0.101824 -0.000234787 0)
(-0.101694 -0.000323559 0)
(-0.101524 -0.000414935 0)
(-0.101313 -0.000509098 0)
(-0.101062 -0.00060622 0)
(-0.100767 -0.000706465 0)
(-0.100428 -0.000809986 0)
(-0.100044 -0.000916923 0)
(-0.0996134 -0.0010274 0)
(-0.099134 -0.00114153 0)
(-0.0986047 -0.00125941 0)
(-0.0980238 -0.00138111 0)
(-0.09739 -0.00150667 0)
(-0.0967014 -0.00163614 0)
(-0.0959566 -0.00176951 0)
(-0.0951539 -0.00190676 0)
(-0.0942919 -0.00204784 0)
(-0.0933688 -0.00219265 0)
(-0.0923834 -0.00234109 0)
(-0.091334 -0.00249299 0)
(-0.0902195 -0.00264816 0)
(-0.0890385 -0.00280636 0)
(-0.0877898 -0.00296731 0)
(-0.0864726 -0.00313069 0)
(-0.0850858 -0.00329612 0)
(-0.0836289 -0.00346318 0)
(-0.0821013 -0.0036314 0)
(-0.0805028 -0.00380024 0)
(-0.0788332 -0.00396913 0)
(-0.0770928 -0.00413742 0)
(-0.0752821 -0.00430442 0)
(-0.0734019 -0.00446939 0)
(-0.0714532 -0.00463151 0)
(-0.0694376 -0.00478991 0)
(-0.0673569 -0.00494368 0)
(-0.0652133 -0.00509183 0)
(-0.0630095 -0.00523334 0)
(-0.0607485 -0.00536711 0)
(-0.0584339 -0.00549203 0)
(-0.0560697 -0.00560691 0)
(-0.0536604 -0.00571053 0)
(-0.0512111 -0.00580165 0)
(-0.0487273 -0.00587897 0)
(-0.046215 -0.00594119 0)
(-0.0436808 -0.00598698 0)
(-0.0411318 -0.00601501 0)
(-0.0385757 -0.00602394 0)
(-0.0360208 -0.00601244 0)
(-0.0334755 -0.00597921 0)
(-0.0309493 -0.00592299 0)
(-0.0284517 -0.00584254 0)
(-0.0259928 -0.00573673 0)
(-0.0235832 -0.00560448 0)
(-0.0212336 -0.00544483 0)
(-0.0189554 -0.00525699 0)
(-0.0167598 -0.00504031 0)
(-0.0146582 -0.0047944 0)
(-0.0126622 -0.00451911 0)
(-0.0107831 -0.00421471 0)
(-0.00903185 -0.00388188 0)
(-0.00741889 -0.00352193 0)
(-0.00595384 -0.00313696 0)
(-0.00464515 -0.0027301 0)
(-0.00349968 -0.00230584 0)
(-0.00252218 -0.00187056 0)
(-0.00171469 -0.0014331 0)
(-0.00107574 -0.00100567 0)
(-0.000599509 -0.00060501 0)
(-0.000274816 -0.000253881 0)
(-8.38873e-05 1.72484e-05 0)
(-8.57681e-07 0.000168063 0)
(8.73612e-06 0.000141843 0)
(6.66267e-07 -0.000125817 0)
(-4.10632e-05 -0.000102839 0)
(-0.000181028 0.000112776 0)
(-0.000441972 0.000461989 0)
(-0.000843292 0.000901842 0)
(-0.00139956 0.00139902 0)
(-0.00211987 0.00192789 0)
(-0.00300874 0.0024691 0)
(-0.00406698 0.00300813 0)
(-0.00529229 0.00353421 0)
(-0.00667989 0.00403945 0)
(-0.00822305 0.00451819 0)
(-0.00991353 0.00496647 0)
(-0.011742 0.00538166 0)
(-0.0136982 0.00576215 0)
(-0.0157717 0.00610711 0)
(-0.0179513 0.00641635 0)
(-0.0202259 0.00669012 0)
(-0.0225846 0.00692909 0)
(-0.0250164 0.00713419 0)
(-0.0275106 0.00730657 0)
(-0.0300569 0.00744756 0)
(-0.0326453 0.00755862 0)
(-0.0352662 0.00764127 0)
(-0.0379105 0.00769713 0)
(-0.0405697 0.00772782 0)
(-0.0432356 0.007735 0)
(-0.0459007 0.00772032 0)
(-0.0485578 0.00768542 0)
(-0.0512005 0.00763191 0)
(-0.0538227 0.00756136 0)
(-0.0564189 0.00747532 0)
(-0.058984 0.00737526 0)
(-0.0615135 0.00726261 0)
(-0.0640033 0.00713874 0)
(-0.0664496 0.00700495 0)
(-0.0688493 0.00686249 0)
(-0.0711996 0.00671253 0)
(-0.073498 0.00655619 0)
(-0.0757424 0.00639448 0)
(-0.0779311 0.0062284 0)
(-0.0800626 0.00605885 0)
(-0.0821358 0.00588665 0)
(-0.0841499 0.00571259 0)
(-0.0861043 0.00553738 0)
(-0.0879985 0.00536165 0)
(-0.0898325 0.00518601 0)
(-0.0916063 0.00501098 0)
(-0.0933201 0.00483703 0)
(-0.0949743 0.00466458 0)
(-0.0965693 0.00449401 0)
(-0.0981058 0.00432563 0)
(-0.0995845 0.00415972 0)
(-0.101006 0.0039965 0)
(-0.102372 0.00383617 0)
(-0.103683 0.00367887 0)
(-0.104939 0.00352472 0)
(-0.106143 0.00337379 0)
(-0.107294 0.00322612 0)
(-0.108395 0.00308172 0)
(-0.109446 0.00294059 0)
(-0.110447 0.00280266 0)
(-0.111402 0.00266789 0)
(-0.112309 0.00253616 0)
(-0.113171 0.00240737 0)
(-0.113988 0.00228138 0)
(-0.114761 0.00215804 0)
(-0.115492 0.00203717 0)
(-0.11618 0.00191858 0)
(-0.116826 0.00180208 0)
(-0.117432 0.00168744 0)
(-0.117997 0.00157443 0)
(-0.118523 0.00146282 0)
(-0.11901 0.00135234 0)
(-0.119457 0.00124274 0)
(-0.119866 0.00113375 0)
(-0.120236 0.00102509 0)
(-0.120567 0.000916478 0)
(-0.12086 0.000807618 0)
(-0.121115 0.000698218 0)
(-0.12133 0.000587979 0)
(-0.121506 0.000476602 0)
(-0.121643 0.000363781 0)
(-0.121739 0.000249215 0)
(-0.121794 0.000132599 0)
(-0.121807 1.36335e-05 0)
(-0.121778 -0.000107981 0)
(-0.121706 -0.000232538 0)
(-0.121589 -0.000360326 0)
(-0.121427 -0.000491626 0)
(-0.121218 -0.00062671 0)
(-0.12096 -0.000765841 0)
(-0.120654 -0.000909267 0)
(-0.120296 -0.00105722 0)
(-0.119885 -0.00120993 0)
(-0.119421 -0.00136759 0)
(-0.118901 -0.00153038 0)
(-0.118323 -0.00169845 0)
(-0.117686 -0.00187195 0)
(-0.116987 -0.00205096 0)
(-0.116226 -0.00223557 0)
(-0.1154 -0.0024258 0)
(-0.114507 -0.00262166 0)
(-0.113546 -0.00282311 0)
(-0.112515 -0.00303007 0)
(-0.111411 -0.0032424 0)
(-0.110234 -0.00345992 0)
(-0.108981 -0.0036824 0)
(-0.107651 -0.00390955 0)
(-0.106243 -0.00414102 0)
(-0.104755 -0.0043764 0)
(-0.103187 -0.0046152 0)
(-0.101536 -0.00485688 0)
(-0.0998031 -0.00510081 0)
(-0.097987 -0.00534631 0)
(-0.0960874 -0.0055926 0)
(-0.0941045 -0.00583883 0)
(-0.0920384 -0.00608406 0)
(-0.0898897 -0.00632729 0)
(-0.0876596 -0.00656742 0)
(-0.0853492 -0.00680328 0)
(-0.0829604 -0.00703359 0)
(-0.0804953 -0.00725704 0)
(-0.0779567 -0.00747219 0)
(-0.0753476 -0.00767755 0)
(-0.0726717 -0.00787156 0)
(-0.0699331 -0.00805257 0)
(-0.0671367 -0.00821889 0)
(-0.0642876 -0.00836876 0)
(-0.0613918 -0.00850038 0)
(-0.0584557 -0.00861189 0)
(-0.0554864 -0.00870142 0)
(-0.0524916 -0.00876707 0)
(-0.0494795 -0.00880693 0)
(-0.0464592 -0.00881909 0)
(-0.04344 -0.00880167 0)
(-0.0404321 -0.00875282 0)
(-0.0374461 -0.00867077 0)
(-0.0344932 -0.0085538 0)
(-0.0315849 -0.00840033 0)
(-0.0287334 -0.00820889 0)
(-0.0259512 -0.0079782 0)
(-0.0232509 -0.00770721 0)
(-0.0206455 -0.00739512 0)
(-0.018148 -0.00704151 0)
(-0.0157714 -0.00664636 0)
(-0.0135284 -0.00621019 0)
(-0.0114313 -0.00573421 0)
(-0.00949176 -0.00522049 0)
(-0.00772045 -0.00467221 0)
(-0.0061267 -0.00409397 0)
(-0.00471812 -0.00349221 0)
(-0.00350008 -0.00287582 0)
(-0.00247513 -0.0022568 0)
(-0.00164239 -0.00165129 0)
(-0.000996815 -0.00108079 0)
(-0.000528297 -0.000573781 0)
(-0.000220661 -0.000167416 0)
(-5.27527e-05 9.02151e-05 0)
(-4.35877e-07 0.00013268 0)
(-7.72429e-06 -9.57523e-05 0)
(-8.99845e-05 2.18884e-05 0)
(-0.000311382 0.000359984 0)
(-0.000684068 0.000853154 0)
(-0.0012221 0.00145278 0)
(-0.00193775 0.00212042 0)
(-0.00283833 0.00282592 0)
(-0.00392704 0.00354597 0)
(-0.00520367 0.00426273 0)
(-0.0066651 0.00496268 0)
(-0.00830581 0.00563571 0)
(-0.0101183 0.00627438 0)
(-0.0120936 0.00687338 0)
(-0.0142214 0.00742908 0)
(-0.0164907 0.00793917 0)
(-0.0188899 0.00840238 0)
(-0.0214068 0.00881825 0)
(-0.0240294 0.00918699 0)
(-0.0267454 0.00950932 0)
(-0.0295428 0.00978637 0)
(-0.0324097 0.0100196 0)
(-0.0353346 0.0102106 0)
(-0.0383064 0.0103613 0)
(-0.0413144 0.0104737 0)
(-0.0443485 0.0105499 0)
(-0.047399 0.010592 0)
(-0.0504568 0.0106023 0)
(-0.0535134 0.0105829 0)
(-0.0565608 0.010536 0)
(-0.0595915 0.0104638 0)
(-0.0625989 0.0103683 0)
(-0.0655765 0.0102517 0)
(-0.0685187 0.0101159 0)
(-0.0714203 0.00996286 0)
(-0.0742766 0.00979446 0)
(-0.0770835 0.00961243 0)
(-0.0798371 0.00941847 0)
(-0.0825344 0.00921417 0)
(-0.0851725 0.00900104 0)
(-0.087749 0.00878049 0)
(-0.0902619 0.00855384 0)
(-0.0927095 0.00832234 0)
(-0.0950906 0.00808712 0)
(-0.0974041 0.00784924 0)
(-0.0996493 0.00760967 0)
(-0.101826 0.00736929 0)
(-0.103933 0.00712892 0)
(-0.105972 0.00688928 0)
(-0.107942 0.00665102 0)
(-0.109843 0.00641472 0)
(-0.111677 0.00618089 0)
(-0.113444 0.00594996 0)
(-0.115144 0.00572233 0)
(-0.116779 0.0054983 0)
(-0.11835 0.00527813 0)
(-0.119857 0.00506204 0)
(-0.121303 0.00485019 0)
(-0.122687 0.00464267 0)
(-0.124011 0.00443955 0)
(-0.125277 0.00424085 0)
(-0.126486 0.00404655 0)
(-0.127638 0.00385659 0)
(-0.128735 0.00367089 0)
(-0.129779 0.00348932 0)
(-0.130769 0.00331172 0)
(-0.131708 0.00313791 0)
(-0.132597 0.00296768 0)
(-0.133436 0.00280081 0)
(-0.134226 0.00263702 0)
(-0.134968 0.00247606 0)
(-0.135662 0.00231762 0)
(-0.136311 0.00216139 0)
(-0.136913 0.00200705 0)
(-0.13747 0.00185424 0)
(-0.137981 0.00170263 0)
(-0.138448 0.00155183 0)
(-0.13887 0.00140147 0)
(-0.139247 0.00125117 0)
(-0.13958 0.00110053 0)
(-0.139868 0.000949145 0)
(-0.14011 0.000796617 0)
(-0.140308 0.000642536 0)
(-0.140459 0.00048649 0)
(-0.140564 0.000328067 0)
(-0.140621 0.000166856 0)
(-0.14063 2.44865e-06 0)
(-0.140591 -0.000165558 0)
(-0.1405 -0.000337563 0)
(-0.140359 -0.000513956 0)
(-0.140165 -0.000695117 0)
(-0.139917 -0.000881414 0)
(-0.139614 -0.0010732 0)
(-0.139253 -0.00127081 0)
(-0.138834 -0.00147456 0)
(-0.138355 -0.00168475 0)
(-0.137813 -0.00190164 0)
(-0.137207 -0.00212547 0)
(-0.136535 -0.00235645 0)
(-0.135794 -0.00259476 0)
(-0.134984 -0.00284053 0)
(-0.134102 -0.00309385 0)
(-0.133145 -0.00335476 0)
(-0.132112 -0.00362326 0)
(-0.131001 -0.00389929 0)
(-0.129809 -0.00418272 0)
(-0.128535 -0.00447338 0)
(-0.127177 -0.004771 0)
(-0.125732 -0.00507527 0)
(-0.1242 -0.00538579 0)
(-0.122578 -0.00570207 0)
(-0.120866 -0.00602354 0)
(-0.119061 -0.00634955 0)
(-0.117163 -0.00667935 0)
(-0.115172 -0.00701208 0)
(-0.113085 -0.0073468 0)
(-0.110904 -0.00768245 0)
(-0.108628 -0.00801787 0)
(-0.106258 -0.00835181 0)
(-0.103793 -0.00868287 0)
(-0.101237 -0.00900957 0)
(-0.0985887 -0.00933031 0)
(-0.0958518 -0.00964339 0)
(-0.0930284 -0.00994698 0)
(-0.0901215 -0.0102392 0)
(-0.0871348 -0.0105179 0)
(-0.0840722 -0.0107811 0)
(-0.0809387 -0.0110266 0)
(-0.0777395 -0.011252 0)
(-0.0744807 -0.011455 0)
(-0.0711688 -0.0116331 0)