/*--------------------------------*- C++ -*----------------------------------*\
  =========                 |
  \\      /  F ield         | OpenFOAM: The Open Source CFD Toolbox
   \\    /   O peration     | Website:  https://openfoam.org
    \\  /    A nd           | Version:  7
     \\/     M anipulation  |
\*---------------------------------------------------------------------------*/
FoamFile
{
    version     2.0;
    format      ascii;
    class       volScalarField;
    location    "0.3875";
    object      p;
}
// * * * * * * * * * * * * * * * * * * * * * * * * * * * * * * * * * * * * * //

dimensions      [0 2 -2 0 0 0 0];

internalField   nonuniform List<scalar> 
12800
(
7.30465e-06
0.000196761
-0.000884481
-0.00332617
-0.00688258
-0.0113065
-0.0163644
-0.0218428
-0.0275551
-0.033341
-0.0390643
-0.0446094
-0.0498791
-0.0547919
-0.0592798
-0.0632867
-0.0667669
-0.0696837
-0.0720083
-0.0737188
-0.0747995
-0.0752398
-0.0750342
-0.0741808
-0.0726816
-0.0705415
-0.0677683
-0.0643718
-0.060364
-0.0557585
-0.0505701
-0.0448151
-0.0385101
-0.031673
-0.0243217
-0.0164747
-0.00815083
0.000631243
0.00985276
0.0194951
0.02954
0.0399693
0.0507654
0.0619109
0.0733892
0.0851838
0.0972792
0.10966
0.122312
0.135221
0.148373
0.161756
0.175358
0.189167
0.203173
0.217365
0.231733
0.246268
0.260963
0.275808
0.290796
0.30592
0.321175
0.336553
0.352049
0.367659
0.383377
0.399199
0.41512
0.431138
0.447249
0.463449
0.479736
0.496107
0.512559
0.52909
0.545698
0.56238
0.579134
0.595959
0.612851
0.62981
0.646832
0.663915
0.681056
0.698254
0.715504
0.732804
0.75015
0.767539
0.784966
0.802426
0.819914
0.837425
0.854953
0.87249
0.89003
0.907565
0.925085
0.942582
0.960044
0.977462
0.994823
1.01211
1.02932
1.04643
1.06343
1.0803
1.09701
1.11357
1.12993
1.14609
1.16203
1.17771
1.19312
1.20823
1.22302
1.23746
1.25153
1.26519
1.27842
1.29119
1.30348
1.31525
1.32647
1.33712
1.34717
1.3566
1.36536
1.37345
1.38083
1.38748
1.39339
1.39853
1.40288
1.40644
1.40919
1.41113
1.41226
1.41257
1.41209
1.41082
1.40878
1.406
1.40252
1.39839
1.39366
1.38839
1.38268
1.37661
1.3703
1.36388
1.35751
1.35137
1.34568
1.34068
1.33663
1.33382
1.33254
1.3327
-0.000167348
1.84076e-05
-0.000982201
-0.00311258
-0.00614906
-0.00991605
-0.0142397
-0.0189492
-0.023888
-0.0289168
-0.0339135
-0.0387721
-0.0434012
-0.047723
-0.0516714
-0.0551912
-0.0582364
-0.0607696
-0.0627605
-0.0641856
-0.0650273
-0.0652729
-0.0649145
-0.0639479
-0.0623728
-0.0601915
-0.0574095
-0.0540343
-0.0500754
-0.0455441
-0.0404532
-0.0348165
-0.0286488
-0.0219658
-0.0147837
-0.00711919
0.00101077
0.00958901
0.0185983
0.0280215
0.0378415
0.0480415
0.058605
0.0695158
0.0807579
0.0923161
0.104175
0.116321
0.128739
0.141417
0.154341
0.167499
0.180879
0.194471
0.208263
0.222245
0.236408
0.250743
0.265241
0.279894
0.294696
0.309638
0.324714
0.339918
0.355245
0.370688
0.386243
0.401906
0.417672
0.433537
0.449497
0.465549
0.48169
0.497916
0.514225
0.530613
0.547079
0.563619
0.580231
0.596912
0.613661
0.630473
0.647347
0.66428
0.681269
0.69831
0.715401
0.732537
0.749715
0.766931
0.784179
0.801456
0.818754
0.83607
0.853395
0.870723
0.888047
0.905358
0.922647
0.939905
0.957121
0.974284
0.991383
1.0084
1.02533
1.04216
1.05886
1.07543
1.09184
1.10808
1.12413
1.13997
1.15558
1.17093
1.18601
1.20078
1.21524
1.22934
1.24308
1.25641
1.26932
1.28178
1.29376
1.30523
1.31618
1.32656
1.33636
1.34556
1.35412
1.36202
1.36925
1.37578
1.38159
1.38667
1.39101
1.39459
1.39741
1.39946
1.40075
1.40128
1.40107
1.40012
1.39846
1.39612
1.39314
1.38957
1.38546
1.38087
1.37589
1.37061
1.36513
1.35958
1.3541
1.34885
1.344
1.33975
1.33631
1.33388
1.3327
1.33287
0.000920646
0.00102476
2.24177e-05
-0.00196048
-0.00470902
-0.00808107
-0.0119363
-0.0161329
-0.0205376
-0.0250288
-0.0294976
-0.0338477
-0.0379945
-0.0418648
-0.045396
-0.0485347
-0.0512358
-0.0534622
-0.0551835
-0.0563755
-0.0570194
-0.0571015
-0.0566124
-0.0555464
-0.0539014
-0.0516783
-0.0488804
-0.0455138
-0.0415861
-0.037107
-0.0320874
-0.0265395
-0.0204765
-0.0139125
-0.00686224
0.000659096
0.00863587
0.0170522
0.0258922
0.0351397
0.0447788
0.0547938
0.0651689
0.0758889
0.0869388
0.0983037
0.109969
0.121922
0.134148
0.146635
0.15937
0.172342
0.185538
0.198948
0.212562
0.226369
0.24036
0.254527
0.26886
0.283352
0.297995
0.312783
0.327708
0.342764
0.357946
0.373248
0.388665
0.404191
0.419824
0.435557
0.451388
0.467313
0.483327
0.499428
0.515613
0.531878
0.548221
0.564638
0.581127
0.597684
0.614308
0.630994
0.64774
0.664544
0.6814
0.698307
0.71526
0.732256
0.74929
0.766357
0.783453
0.800573
0.81771
0.834859
0.852012
0.869164
0.886305
0.903427
0.920522
0.93758
0.95459
0.971541
0.988421
1.00522
1.02192
1.03851
1.05497
1.07129
1.08745
1.10343
1.11922
1.1348
1.15014
1.16522
1.18003
1.19454
1.20872
1.22256
1.23603
1.2491
1.26175
1.27396
1.2857
1.29694
1.30766
1.31784
1.32745
1.33646
1.34487
1.35263
1.35975
1.36619
1.37193
1.37698
1.38131
1.38492
1.38781
1.38996
1.39139
1.39209
1.39209
1.39141
1.39005
1.38806
1.38548
1.38234
1.3787
1.37463
1.37021
1.36551
1.36063
1.3557
1.35083
1.34616
1.34186
1.33807
1.33496
1.3327
1.33153
1.33159
0.00336902
0.00316244
0.00200667
1.79699e-05
-0.0026243
-0.00579676
-0.00937942
-0.0132516
-0.0172987
-0.0214144
-0.025502
-0.0294748
-0.0332557
-0.0367771
-0.0399801
-0.0428145
-0.045237
-0.0472118
-0.048709
-0.0497046
-0.0501796
-0.0501197
-0.0495148
-0.0483583
-0.046647
-0.0443805
-0.0415612
-0.0381935
-0.034284
-0.0298409
-0.0248738
-0.0193937
-0.0134123
-0.00694253
2.12177e-06
0.00740762
0.0152595
0.023543
0.0322431
0.0413448
0.0508331
0.060693
0.0709098
0.0814688
0.0923557
0.103556
0.115057
0.126845
0.138907
0.15123
0.163802
0.176612
0.189649
0.202901
0.216359
0.230014
0.243854
0.257873
0.272061
0.286411
0.300915
0.315566
0.330357
0.345282
0.360335
0.37551
0.390802
0.406207
0.421719
0.437334
0.453048
0.468858
0.484758
0.500746
0.516818
0.532972
0.549202
0.565508
0.581884
0.598329
0.614839
0.631411
0.648042
0.664727
0.681465
0.69825
0.715079
0.731947
0.748851
0.765786
0.782745
0.799725
0.816718
0.833719
0.85072
0.867714
0.884694
0.901651
0.918575
0.935457
0.952287
0.969053
0.985743
1.00235
1.01885
1.03523
1.05149
1.06759
1.08354
1.09931
1.11487
1.13023
1.14534
1.1602
1.17478
1.18906
1.20302
1.21663
1.22988
1.24274
1.25518
1.26718
1.27872
1.28977
1.30032
1.31033
1.31978
1.32866
1.33694
1.3446
1.35163
1.358
1.36371
1.36873
1.37307
1.37671
1.37966
1.3819
1.38345
1.38431
1.38449
1.38402
1.38292
1.38121
1.37894
1.37614
1.37288
1.36921
1.3652
1.36093
1.35649
1.35198
1.34752
1.34323
1.33924
1.33568
1.3327
1.33044
1.32909
1.32878
0.00694117
0.00621393
0.00476118
0.00265017
-3.0051e-06
-0.00309249
-0.00651519
-0.0101694
-0.0139574
-0.0177873
-0.0215743
-0.0252413
-0.0287188
-0.0319454
-0.0348669
-0.0374364
-0.0396133
-0.0413636
-0.0426585
-0.0434748
-0.0437938
-0.043601
-0.042886
-0.0416417
-0.0398641
-0.0375522
-0.0347071
-0.0313324
-0.0274336
-0.0230178
-0.0180933
-0.0126701
-0.00675882
-0.000371191
0.00648039
0.0137829
0.021523
0.0296868
0.0382603
0.0472294
0.0565799
0.0662978
0.0763689
0.0867794
0.0975155
0.108564
0.119911
0.131545
0.143453
0.155622
0.168041
0.180699
0.193585
0.206689
0.22
0.233509
0.247207
0.261084
0.275134
0.289347
0.303717
0.318237
0.332898
0.347696
0.362625
0.377677
0.392849
0.408135
0.42353
0.43903
0.45463
0.470327
0.486116
0.501993
0.517955
0.533998
0.550119
0.566315
0.582582
0.598916
0.615314
0.631774
0.648291
0.664861
0.681481
0.698147
0.714855
0.7316
0.748377
0.765182
0.782009
0.798853
0.815707
0.832564
0.849419
0.866263
0.883088
0.899885
0.916647
0.933361
0.95002
0.96661
0.983121
0.999539
1.01585
1.03205
1.04811
1.06402
1.07976
1.09533
1.11069
1.12583
1.14074
1.15539
1.16976
1.18383
1.19759
1.211
1.22405
1.23671
1.24896
1.26078
1.27214
1.28303
1.29341
1.30328
1.3126
1.32135
1.32953
1.3371
1.34405
1.35037
1.35605
1.36106
1.36541
1.36909
1.37209
1.37443
1.37609
1.37709
1.37744
1.37717
1.37629
1.37483
1.37283
1.37033
1.36739
1.36405
1.36038
1.35646
1.35236
1.34818
1.34402
1.33998
1.33617
1.33271
1.32972
1.32732
1.32564
1.32473
0.0114014
0.010012
0.00815022
0.00581826
0.00305465
-5.13981e-05
-0.0034113
-0.00694064
-0.0105572
-0.0141824
-0.0177427
-0.0211704
-0.0244039
-0.0273878
-0.0300731
-0.0324167
-0.0343812
-0.0359347
-0.0370501
-0.0377053
-0.0378823
-0.037567
-0.0367489
-0.0354208
-0.0335784
-0.0312199
-0.0283459
-0.0249593
-0.0210647
-0.0166681
-0.0117772
-0.00640082
-0.000548675
0.00576848
0.0125392
0.0197514
0.0273926
0.0354499
0.0439101
0.0527599
0.061986
0.071575
0.0815135
0.0917882
0.102386
0.113294
0.1245
0.135992
0.147757
0.159783
0.17206
0.184576
0.197321
0.210285
0.223458
0.23683
0.250393
0.264137
0.278055
0.29214
0.306382
0.320776
0.335314
0.349991
0.3648
0.379735
0.39479
0.409962
0.425244
0.440633
0.456122
0.47171
0.48739
0.503159
0.519014
0.53495
0.550965
0.567053
0.583213
0.599439
0.615729
0.632079
0.648485
0.664943
0.68145
0.698
0.71459
0.731215
0.74787
0.76455
0.78125
0.797963
0.814683
0.831403
0.848118
0.864818
0.881496
0.898142
0.914749
0.931306
0.947803
0.964228
0.98057
0.996816
1.01295
1.02897
1.04485
1.06058
1.07614
1.09151
1.10669
1.12164
1.13636
1.15082
1.165
1.17888
1.19245
1.20568
1.21855
1.23103
1.24312
1.25477
1.26598
1.27672
1.28697
1.29671
1.30591
1.31456
1.32265
1.33015
1.33704
1.34332
1.34898
1.35399
1.35836
1.36208
1.36514
1.36755
1.36932
1.37045
1.37096
1.37086
1.37018
1.36894
1.36717
1.36493
1.36224
1.35918
1.35578
1.35213
1.34829
1.34434
1.34038
1.33648
1.33274
1.32927
1.32616
1.32352
1.32137
1.31972
0.0165287
0.0143919
0.0120408
0.00940845
0.0064512
0.0032435
-0.000138356
-0.00362545
-0.00714958
-0.0106443
-0.0140466
-0.0172978
-0.0203437
-0.0231354
-0.025629
-0.0277854
-0.0295708
-0.0309556
-0.031915
-0.0324283
-0.0324784
-0.032052
-0.031139
-0.0297322
-0.0278273
-0.0254221
-0.0225171
-0.0191144
-0.015218
-0.0108334
-0.00596737
-0.000627968
0.00517579
0.011434
0.018136
0.0252706
0.0328261
0.0407903
0.0491508
0.0578951
0.0670106
0.0764844
0.0863039
0.0964565
0.10693
0.117711
0.128788
0.14015
0.151784
0.16368
0.175825
0.188211
0.200826
0.21366
0.226704
0.239949
0.253386
0.267006
0.280801
0.294763
0.308886
0.323161
0.337583
0.352145
0.36684
0.381663
0.396608
0.411671
0.426845
0.442127
0.457511
0.472993
0.488569
0.504235
0.519986
0.535819
0.551731
0.567716
0.583772
0.599894
0.616079
0.632324
0.648623
0.664973
0.68137
0.697809
0.714286
0.730796
0.747334
0.763895
0.780472
0.79706
0.813653
0.830244
0.846826
0.86339
0.879929
0.896434
0.912896
0.929305
0.945651
0.961922
0.978108
0.994195
1.01017
1.02602
1.04174
1.0573
1.07269
1.08789
1.1029
1.11768
1.13222
1.14651
1.16053
1.17424
1.18765
1.20071
1.21342
1.22576
1.23769
1.24921
1.26028
1.27089
1.28102
1.29065
1.29976
1.30833
1.31634
1.32378
1.33064
1.33689
1.34253
1.34755
1.35194
1.3557
1.35883
1.36132
1.36319
1.36443
1.36507
1.36513
1.36461
1.36356
1.36199
1.35995
1.35748
1.35463
1.35144
1.34799
1.34432
1.34052
1.33666
1.33281
1.32906
1.32548
1.32215
1.31917
1.31648
1.31398
0.0221219
0.0191921
0.016298
0.0133058
0.01009
0.00671235
0.00323914
-0.000274496
-0.00377295
-0.00720081
-0.0105047
-0.0136344
-0.0165431
-0.0191879
-0.02153
-0.0235348
-0.0251718
-0.0264144
-0.0272399
-0.0276294
-0.0275672
-0.0270409
-0.0260411
-0.0245609
-0.0225962
-0.0201449
-0.0172071
-0.0137849
-0.00988157
-0.00550229
-0.000653286
0.00465805
0.0104233
0.0166333
0.023278
0.0303469
0.037829
0.0457127
0.0539865
0.0626384
0.0716563
0.0810282
0.0907418
0.100785
0.111146
0.121813
0.132774
0.144018
0.155534
0.16731
0.179336
0.191601
0.204096
0.216811
0.229737
0.242863
0.256183
0.269687
0.283367
0.297216
0.311226
0.325391
0.339702
0.354155
0.368743
0.38346
0.398301
0.413259
0.428331
0.443511
0.458793
0.474175
0.489651
0.505218
0.52087
0.536604
0.552416
0.568302
0.584258
0.60028
0.616365
0.632507
0.648704
0.66495
0.681242
0.697574
0.713943
0.730343
0.746769
0.763215
0.779677
0.796147
0.812619
0.829087
0.845543
0.86198
0.878388
0.89476
0.911087
0.927358
0.943564
0.959693
0.975734
0.991674
1.0075
1.0232
1.03877
1.05417
1.06941
1.08446
1.09931
1.11394
1.12833
1.14247
1.15633
1.1699
1.18316
1.19608
1.20866
1.22086
1.23266
1.24406
1.25502
1.26552
1.27556
1.2851
1.29413
1.30263
1.31059
1.31799
1.32481
1.33105
1.33668
1.34172
1.34614
1.34994
1.35312
1.35569
1.35765
1.359
1.35976
1.35995
1.35958
1.35867
1.35727
1.3554
1.35309
1.3504
1.34736
1.34404
1.34049
1.33676
1.33293
1.32906
1.3252
1.32143
1.31782
1.31444
1.31114
1.30776
0.0280057
0.0242642
0.0207948
0.0174006
0.0138771
0.0102763
0.00665608
0.00305959
-0.000468846
-0.00388363
-0.00714027
-0.0101963
-0.0130118
-0.0155498
-0.0177765
-0.0196617
-0.0211782
-0.0223027
-0.0230148
-0.0232975
-0.0231367
-0.0225212
-0.0214423
-0.019894
-0.0178724
-0.0153757
-0.012404
-0.00895911
-0.0050444
-0.000664509
0.00417468
0.0094662
0.0152022
0.0213739
0.027972
0.0349864
0.0424067
0.050222
0.0584213
0.0669932
0.0759262
0.0852086
0.094829
0.104776
0.115037
0.125602
0.136459
0.147597
0.159005
0.170673
0.18259
0.194746
0.207131
0.219737
0.232553
0.245571
0.258782
0.272179
0.285752
0.299495
0.313401
0.327461
0.34167
0.356021
0.370508
0.385125
0.399866
0.414726
0.4297
0.444783
0.459969
0.475255
0.490636
0.506107
0.521664
0.537303
0.55302
0.568811
0.584671
0.600597
0.616585
0.63263
0.648728
0.664874
0.681065
0.697295
0.713561
0.729856
0.746175
0.762513
0.778864
0.795222
0.811581
0.827932
0.84427
0.860586
0.876873
0.893121
0.909321
0.925464
0.94154
0.957537
0.973445
0.989251
1.00494
1.02051
1.03593
1.0512
1.0663
1.08121
1.09592
1.11041
1.12467
1.13867
1.1524
1.16585
1.17898
1.19178
1.20423
1.21632
1.22802
1.23931
1.25018
1.2606
1.27055
1.28003
1.289
1.29745
1.30536
1.31273
1.31954
1.32577
1.33141
1.33646
1.34092
1.34476
1.34801
1.35065
1.35269
1.35413
1.355
1.3553
1.35505
1.35427
1.353
1.35125
1.34907
1.3465
1.34356
1.34032
1.33682
1.33311
1.32924
1.32527
1.32126
1.31724
1.31329
1.30947
1.30553
1.30124
0.0340291
0.0294756
0.0254146
0.0215902
0.0177235
0.0138587
0.0100474
0.00632238
0.00271802
-0.000728858
-0.00398172
-0.00700528
-0.00976601
-0.0122325
-0.0143759
-0.0161699
-0.0175914
-0.0186196
-0.019237
-0.0194286
-0.0191819
-0.0184871
-0.0173367
-0.0157252
-0.0136496
-0.0111082
-0.00810156
-0.00463143
-0.000701084
0.00368495
0.00852104
0.0138005
0.0195159
0.0256588
0.0322203
0.0391909
0.0465606
0.0543191
0.0624557
0.0709596
0.0798197
0.089025
0.0985642
0.108426
0.1186
0.129075
0.139839
0.150883
0.162195
0.173766
0.185584
0.197642
0.209928
0.222434
0.23515
0.248069
0.261181
0.274478
0.287953
0.301598
0.315406
0.32937
0.343483
0.357738
0.37213
0.386653
0.401301
0.416068
0.43095
0.445941
0.461036
0.476231
0.491521
0.506901
0.522368
0.537916
0.553542
0.569242
0.585011
0.600844
0.616739
0.632691
0.648694
0.664746
0.68084
0.696973
0.71314
0.729334
0.745552
0.761788
0.778034
0.794286
0.810537
0.82678
0.843007
0.859211
0.875383
0.891515
0.907599
0.923623
0.939579
0.955455
0.971241
0.986924
1.00249
1.01793
1.03323
1.04838
1.06335
1.07814
1.09273
1.1071
1.12124
1.13512
1.14874
1.16207
1.17509
1.18779
1.20015
1.21214
1.22375
1.23496
1.24575
1.2561
1.266
1.27541
1.28434
1.29276
1.30065
1.308
1.3148
1.32103
1.3267
1.33177
1.33626
1.34016
1.34346
1.34617
1.34828
1.34982
1.35077
1.35117
1.35102
1.35035
1.34918
1.34753
1.34544
1.34294
1.34006
1.33685
1.33335
1.3296
1.32565
1.32154
1.31731
1.313
1.30867
1.30437
1.29978
1.29461
0.0400636
0.0347093
0.0300516
0.0257798
0.0215452
0.0173862
0.0133498
0.00945977
0.00574202
0.00222561
-0.00106009
-0.00408629
-0.00682529
-0.00925094
-0.011339
-0.0130673
-0.0144161
-0.0153679
-0.0159075
-0.016022
-0.015701
-0.014936
-0.0137208
-0.0120508
-0.00992362
-0.00733837
-0.00429572
-0.000797728
0.00315225
0.00754971
0.0123891
0.017664
0.023367
0.0294902
0.0360249
0.042962
0.0502918
0.0580045
0.0660898
0.0745373
0.0833364
0.0924763
0.101946
0.111736
0.121834
0.13223
0.142913
0.153874
0.165101
0.176586
0.188317
0.200286
0.212483
0.224899
0.237525
0.250353
0.263375
0.276582
0.289966
0.303521
0.317239
0.331114
0.345137
0.359304
0.373608
0.388043
0.402604
0.417284
0.432079
0.446983
0.461992
0.477101
0.492304
0.507599
0.522979
0.538441
0.553981
0.569593
0.585275
0.601021
0.616827
0.632689
0.648603
0.664564
0.680566
0.696607
0.712679
0.728779
0.744901
0.761039
0.777187
0.79334
0.809489
0.825629
0.841753
0.857852
0.873918
0.889943
0.905918
0.921834
0.93768
0.953445
0.96912
0.984692
1.00015
1.01548
1.03067
1.0457
1.06056
1.07525
1.08973
1.10399
1.11803
1.13181
1.14533
1.15857
1.1715
1.18411
1.19639
1.2083
1.21984
1.23099
1.24172
1.25202
1.26187
1.27125
1.28015
1.28854
1.29642
1.30377
1.31058
1.31683
1.32252
1.32763
1.33216
1.3361
1.33946
1.34224
1.34443
1.34604
1.34708
1.34756
1.34749
1.3469
1.34581
1.34423
1.34219
1.33973
1.33687
1.33366
1.33012
1.32629
1.32221
1.31791
1.31344
1.3088
1.30407
1.29928
1.29404
1.28799
0.0459984
0.0398617
0.0346105
0.0298827
0.0252642
0.0207893
0.0165021
0.0124187
0.00855752
0.00494097
0.00159209
-0.0014662
-0.00421155
-0.00662267
-0.00867966
-0.0103643
-0.0116602
-0.0125527
-0.0130294
-0.0130795
-0.0126945
-0.0118674
-0.0105932
-0.00886872
-0.00669222
-0.00406347
-0.000983658
0.00254482
0.00651838
0.0109324
0.0157814
0.0210588
0.0267576
0.0328698
0.0393871
0.0463006
0.053601
0.0612788
0.0693239
0.0777263
0.0864758
0.095562
0.104974
0.114703
0.124737
0.135066
0.145679
0.156568
0.167722
0.179131
0.190785
0.202676
0.214793
0.227129
0.239675
0.252422
0.265362
0.278487
0.291789
0.305262
0.318898
0.33269
0.346632
0.360717
0.374939
0.389292
0.403771
0.41837
0.433084
0.447907
0.462835
0.477862
0.492985
0.508198
0.523497
0.538877
0.554334
0.569865
0.585463
0.601126
0.616848
0.632625
0.648454
0.664328
0.680244
0.696196
0.71218
0.72819
0.744221
0.760267
0.776323
0.792381
0.808436
0.824481
0.840507
0.856509
0.872477
0.888403
0.904279
0.920094
0.93584
0.951505
0.967079
0.98255
0.997907
1.01314
1.02823
1.04316
1.05793
1.07252
1.08691
1.10108
1.11503
1.12873
1.14217
1.15533
1.16819
1.18073
1.19294
1.2048
1.21629
1.22739
1.23808
1.24834
1.25816
1.26752
1.27641
1.2848
1.29268
1.30004
1.30686
1.31314
1.31886
1.32401
1.32859
1.33259
1.33601
1.33885
1.3411
1.34278
1.3439
1.34445
1.34446
1.34393
1.34289
1.34136
1.33935
1.3369
1.33403
1.33078
1.32716
1.32322
1.31898
1.31447
1.30971
1.30473
1.29958
1.29429
1.28841
1.28151
0.0517383
0.044842
0.0390058
0.0338196
0.028808
0.0240028
0.019446
0.0151475
0.0111193
0.00737811
0.00394128
0.000826539
-0.00194864
-0.00436746
-0.00641408
-0.00807392
-0.00933382
-0.0101821
-0.0106088
-0.0106053
-0.010165
-0.00928272
-0.00795476
-0.00617902
-0.00395477
-0.00128254
0.0018359
0.00539768
0.0093989
0.0138347
0.0186994
0.0239865
0.0296889
0.0357988
0.0423079
0.0492077
0.0564889
0.0641422
0.072158
0.0805265
0.0892377
0.0982815
0.107648
0.117326
0.127307
0.137581
0.148136
0.158964
0.170055
0.181399
0.192987
0.204809
0.216858
0.229123
0.241598
0.254272
0.267139
0.280191
0.29342
0.306818
0.32038
0.334097
0.347964
0.361974
0.376121
0.390399
0.404803
0.419326
0.433964
0.448712
0.463564
0.478515
0.493562
0.508698
0.52392
0.539223
0.554603
0.570055
0.585575
0.601159
0.616801
0.632498
0.648246
0.664038
0.679872
0.695741
0.711641
0.727566
0.743512
0.759472
0.77544
0.791411
0.807377
0.823333
0.83927
0.855181
0.871059
0.886894
0.902678
0.918403
0.934057
0.949632
0.965115
0.980497
0.995765
1.01091
1.02591
1.04076
1.05545
1.06995
1.08427
1.09837
1.11224
1.12587
1.13925
1.15234
1.16515
1.17764
1.1898
1.20162
1.21307
1.22414
1.2348
1.24505
1.25486
1.26422
1.2731
1.2815
1.2894
1.29678
1.30364
1.30995
1.31571
1.32091
1.32554
1.3296
1.33308
1.33598
1.33831
1.34005
1.34123
1.34185
1.34191
1.34143
1.34043
1.33892
1.33693
1.33447
1.33156
1.32824
1.32452
1.32044
1.31601
1.31126
1.30621
1.30087
1.29528
1.2895
1.28298
1.27526
0.0572003
0.0495697
0.0431607
0.0375184
0.0321098
0.0269652
0.0221259
0.0175963
0.0133832
0.00949801
0.00595342
0.00276243
-6.19088e-05
-0.00250687
-0.00456039
-0.0062113
-0.00744952
-0.00826616
-0.00865365
-0.00860577
-0.00811765
-0.00718581
-0.00580806
-0.00398349
-0.00171237
0.0010039
0.00416286
0.00776108
0.0117942
0.0162571
0.0211438
0.0264477
0.0321616
0.0382778
0.0447879
0.0516835
0.0589556
0.066595
0.0745922
0.0829377
0.0916217
0.100634
0.109966
0.119606
0.129545
0.139774
0.150282
0.16106
0.172099
0.183389
0.19492
0.206685
0.218674
0.230879
0.243291
0.255903
0.268706
0.281693
0.294856
0.308189
0.321683
0.335333
0.349133
0.363075
0.377153
0.391362
0.405697
0.420151
0.434719
0.449396
0.464178
0.479058
0.494033
0.509098
0.524248
0.539479
0.554785
0.570164
0.58561
0.601119
0.616686
0.632308
0.647979
0.663694
0.67945
0.695241
0.711062
0.726908
0.742773
0.758652
0.774539
0.790428
0.806312
0.822185
0.838039
0.853867
0.869662
0.885414
0.901116
0.916758
0.93233
0.947823
0.963227
0.978529
0.99372
1.00879
1.02371
1.03849
1.05311
1.06755
1.08179
1.09583
1.10965
1.12323
1.13655
1.1496
1.16237
1.17482
1.18695
1.19875
1.21018
1.22123
1.23189
1.24214
1.25195
1.26132
1.27022
1.27865
1.28657
1.29399
1.30089
1.30725
1.31306
1.31832
1.32301
1.32713
1.33068
1.33364
1.33603
1.33784
1.33908
1.33975
1.33986
1.33942
1.33844
1.33695
1.33494
1.33245
1.32949
1.32608
1.32224
1.31799
1.31336
1.30835
1.30299
1.29727
1.29126
1.28498
1.27784
1.26934
0.0623124
0.0539733
0.0470062
0.0409135
0.0351079
0.0296195
0.0244893
0.0197174
0.015306
0.0112621
0.00759429
0.0043113
0.00142227
-0.0010638
-0.00313832
-0.00479329
-0.00602154
-0.00681687
-0.00717409
-0.00708914
-0.00655907
-0.00558206
-0.00415741
-0.00228545
3.24439e-05
0.00279396
0.00599588
0.00963412
0.0137038
0.0181994
0.0231146
0.0284426
0.0341759
0.0403069
0.0468272
0.0537283
0.0610014
0.0686372
0.0766265
0.0849598
0.0936276
0.10262
0.111928
0.121541
0.13145
0.141645
0.152117
0.162856
0.173853
0.185099
0.196585
0.208302
0.220241
0.232395
0.244755
0.257313
0.270061
0.282991
0.296097
0.309371
0.322807
0.336398
0.350136
0.364017
0.378034
0.392181
0.406452
0.420842
0.435347
0.449959
0.464676
0.47949
0.494399
0.509397
0.52448
0.539643
0.554882
0.570191
0.585568
0.601007
0.616503
0.632053
0.647652
0.663296
0.678978
0.694696
0.710443
0.726214
0.742004
0.757808
0.773619
0.789432
0.80524
0.821036
0.836814
0.852566
0.868285
0.883962
0.899589
0.915157
0.930656
0.946077
0.96141
0.976644
0.991767
1.00677
1.02163
1.03635
1.05091
1.06529
1.07949
1.09348
1.10725
1.12079
1.13408
1.1471
1.15984
1.17228
1.18439
1.19617
1.2076
1.21866
1.22933
1.23959
1.24942
1.25882
1.26775
1.27622
1.28419
1.29165
1.2986
1.30502
1.3109
1.31622
1.32098
1.32517
1.32878
1.33182
1.33427
1.33615
1.33744
1.33816
1.33831
1.3379
1.33694
1.33544
1.33341
1.33087
1.32783
1.32432
1.32034
1.31592
1.31106
1.30579
1.3001
1.29401
1.28757
1.2808
1.27307
1.26381
0.0670109
0.0579894
0.05048
0.0439447
0.0377453
0.0319121
0.0264865
0.021465
0.0168458
0.0126325
0.00882975
0.00544265
0.0024768
-6.21591e-05
-0.0021688
-0.00383811
-0.00506568
-0.00584783
-0.00618169
-0.0060653
-0.00549759
-0.00447842
-0.00300855
-0.00108963
0.00127586
0.00408461
0.00733257
0.0110149
0.0151263
0.0196605
0.0246109
0.0299705
0.0357315
0.0418861
0.0484258
0.0553421
0.0626261
0.0702688
0.0782608
0.0865928
0.0952554
0.104239
0.113534
0.123131
0.133021
0.143193
0.15364
0.164351
0.175317
0.18653
0.19798
0.209659
0.221559
0.233671
0.245988
0.258501
0.271202
0.284085
0.297142
0.310366
0.323751
0.337289
0.350974
0.364801
0.378762
0.392853
0.407068
0.421401
0.435847
0.450401
0.465057
0.479812
0.49466
0.509596
0.524617
0.539716
0.554891
0.570137
0.585448
0.600821
0.616252
0.631735
0.647267
0.662842
0.678457
0.694105
0.709783
0.725484
0.741205
0.756938
0.772679
0.788422
0.80416
0.819886
0.835594
0.851277
0.866927
0.882536
0.898096
0.913598
0.929033
0.944391
0.959662
0.974836
0.989902
1.00485
1.01966
1.03433
1.04885
1.06319
1.07734
1.0913
1.10504
1.11856
1.13182
1.14483
1.15756
1.16999
1.18211
1.1939
1.20534
1.21641
1.2271
1.23739
1.24726
1.2567
1.26568
1.2742
1.28223
1.28976
1.29677
1.30326
1.30921
1.3146
1.31944
1.3237
1.32739
1.3305
1.33303
1.33496
1.33631
1.33708
1.33727
1.33688
1.33592
1.33441
1.33235
1.32975
1.32663
1.323
1.31887
1.31426
1.30917
1.30362
1.29761
1.29115
1.28428
1.27704
1.26872
1.25874
0.0712394
0.061561
0.0535256
0.0465573
0.0399694
0.033793
0.0280704
0.0227952
0.0179623
0.0135721
0.00962595
0.00612583
0.00307413
0.000473435
-0.00167374
-0.00336516
-0.00459899
-0.00537396
-0.00568944
-0.0055455
-0.00494289
-0.00388315
-0.0023685
-0.000401922
0.00201294
0.00487177
0.0081696
0.0119009
0.0160595
0.0206387
0.0256316
0.0310306
0.0368277
0.0430148
0.0495834
0.0565248
0.06383
0.07149
0.0794954
0.087837
0.0965054
0.105491
0.114785
0.124377
0.134258
0.144419
0.154851
0.165545
0.176491
0.187681
0.199106
0.210757
0.222627
0.234708
0.24699
0.259467
0.272131
0.284975
0.297991
0.311173
0.324514
0.338007
0.351647
0.365426
0.379339
0.393381
0.407545
0.421826
0.43622
0.45072
0.465323
0.480023
0.494814
0.509694
0.524657
0.539699
0.554814
0.57
0.585251
0.600563
0.615932
0.631353
0.646822
0.662334
0.677885
0.693469
0.709082
0.724719
0.740375
0.756043
0.771719
0.787397
0.803071
0.818733
0.834378
0.849998
0.865586
0.881134
0.896634
0.912078
0.927457
0.942761
0.95798
0.973104
0.988123
1.00302
1.0178
1.03243
1.04691
1.06122
1.07535
1.08929
1.10301
1.11651
1.12978
1.14278
1.15551
1.16795
1.18009
1.1919
1.20337
1.21447
1.22521
1.23554
1.24547
1.25496
1.264
1.27259
1.28069
1.28829
1.29539
1.30196
1.30799
1.31347
1.31839
1.32274
1.32651
1.3297
1.33229
1.3343
1.3357
1.33652
1.33674
1.33637
1.33541
1.33388
1.33178
1.32912
1.3259
1.32215
1.31786
1.31305
1.30773
1.3019
1.29557
1.28873
1.28144
1.27373
1.26486
1.25419
0.0749475
0.0646364
0.0560917
0.0487008
0.0417312
0.0352152
0.0291965
0.0236661
0.0186162
0.0140445
0.00994945
0.00633025
0.00318643
0.000517802
-0.00167581
-0.00339472
-0.00463955
-0.00541132
-0.00571152
-0.00554217
-0.00490583
-0.00380566
-0.00224537
-0.000229265
0.00223781
0.00515048
0.00850283
0.0122885
0.0165006
0.021132
0.0261749
0.0316215
0.0374635
0.0436925
0.0502997
0.0572762
0.064613
0.0723009
0.0803306
0.0886927
0.097378
0.106377
0.11568
0.125279
0.135163
0.145324
0.155752
0.166439
0.177375
0.188553
0.199962
0.211596
0.223446
0.235504
0.247762
0.260213
0.272848
0.285661
0.298645
0.311793
0.325098
0.338554
0.352154
0.365893
0.379765
0.393763
0.407883
0.42212
0.436466
0.450919
0.465473
0.480123
0.494864
0.509692
0.524602
0.53959
0.554652
0.569782
0.584978
0.600233
0.615545
0.630908
0.646319
0.661772
0.677263
0.692788
0.708341
0.723918
0.739514
0.755123
0.770739
0.786358
0.801972
0.817576
0.833164
0.848727
0.86426
0.879755
0.895203
0.910596
0.925927
0.941184
0.95636
0.971444
0.986425
1.00129
1.01603
1.03064
1.0451
1.05939
1.07351
1.08743
1.10116
1.11466
1.12793
1.14094
1.15369
1.16616
1.17832
1.19017
1.20168
1.21284
1.22363
1.23403
1.24402
1.25358
1.26271
1.27137
1.27956
1.28725
1.29444
1.3011
1.30723
1.31281
1.31782
1.32227
1.32613
1.3294
1.33207
1.33415
1.33561
1.33648
1.33673
1.33638
1.33543
1.33387
1.33173
1.32899
1.32568
1.3218
1.31734
1.31233
1.30677
1.30066
1.29401
1.2868
1.2791
1.27094
1.26153
1.2502
0.0780898
0.067169
0.058131
0.0503284
0.042985
0.0361346
0.0298224
0.0240375
0.0187697
0.0140142
0.0097673
0.00602547
0.00278573
4.53778e-05
-0.00219824
-0.00394784
-0.00520634
-0.00597691
-0.00626307
-0.00606874
-0.00539823
-0.00425632
-0.00264818
-0.000579463
0.00194377
0.00491504
0.00832747
0.0121738
0.0164464
0.0211375
0.0262388
0.0317418
0.037638
0.0439185
0.0505744
0.0575964
0.0649754
0.0727021
0.080767
0.0891608
0.0978742
0.106898
0.116222
0.125838
0.135736
0.145907
0.156343
0.167034
0.177971
0.189147
0.200552
0.212178
0.224018
0.236063
0.248305
0.260738
0.273354
0.286145
0.299104
0.312226
0.325503
0.338929
0.352498
0.366203
0.38004
0.394002
0.408084
0.422281
0.436587
0.450998
0.465508
0.480114
0.494809
0.509591
0.524453
0.539393
0.554404
0.569484
0.584628
0.599832
0.61509
0.6304
0.645757
0.661155
0.676592
0.692062
0.70756
0.723082
0.738622
0.754176
0.769738
0.785302
0.800863
0.816415
0.831951
0.847465
0.862949
0.878396
0.893799
0.90915
0.924439
0.939659
0.9548
0.969851
0.984804
0.999646
1.01437
1.02896
1.0434
1.05769
1.0718
1.08573
1.09946
1.11298
1.12627
1.13931
1.15209
1.1646
1.17681
1.18871
1.20028
1.2115
1.22236
1.23284
1.24291
1.25256
1.26178
1.27054
1.27883
1.28663
1.29392
1.3007
1.30693
1.31262
1.31774
1.32229
1.32625
1.32961
1.33237
1.33452
1.33605
1.33697
1.33726
1.33693
1.33598
1.3344
1.33221
1.3294
1.32599
1.32197
1.31735
1.31214
1.30634
1.29996
1.29298
1.28541
1.27731
1.26871
1.25878
1.24681
0.0806246
0.0691156
0.0595999
0.0513968
0.0436881
0.0365094
0.0299078
0.0238707
0.0183859
0.0134467
0.00904701
0.00518121
0.00184398
-0.000969699
-0.00326477
-0.00504618
-0.006319
-0.00708846
-0.00736003
-0.00713945
-0.00643276
-0.0052463
-0.00358673
-0.00146105
0.00112344
0.00415915
0.00763818
0.0115524
0.0158933
0.0206525
0.0258209
0.0313898
0.0373499
0.0436921
0.0504071
0.0574854
0.0649175
0.0726941
0.0808056
0.0892425
0.0979953
0.107055
0.116411
0.126056
0.135979
0.146172
0.156626
0.167332
0.178281
0.189465
0.200876
0.212504
0.224344
0.236385
0.248622
0.261046
0.27365
0.286427
0.299371
0.312475
0.325731
0.339135
0.352679
0.366358
0.380167
0.394099
0.408149
0.422312
0.436584
0.450958
0.465431
0.479997
0.494652
0.509391
0.524211
0.539106
0.554073
0.569107
0.584204
0.599359
0.61457
0.62983
0.645137
0.660486
0.675872
0.691291
0.706738
0.72221
0.7377
0.753203
0.768716
0.784231
0.799744
0.815249
0.830739
0.846209
0.86165
0.877057
0.892422
0.907736
0.922993
0.938182
0.953296
0.968324
0.983257
0.998084
1.01279
1.02738
1.04182
1.05611
1.07023
1.08418
1.09793
1.11147
1.1248
1.13788
1.15071
1.16327
1.17554
1.1875
1.19915
1.21045
1.22139
1.23196
1.24213
1.25189
1.26122
1.27009
1.2785
1.28641
1.29383
1.30073
1.30708
1.31289
1.31813
1.3228
1.32687
1.33033
1.33319
1.33542
1.33703
1.338
1.33833
1.33803
1.33708
1.33548
1.33325
1.33037
1.32686
1.32271
1.31792
1.31251
1.30648
1.29981
1.29252
1.2846
1.27611
1.26708
1.25665
1.24406
0.082514
0.0704366
0.0604579
0.051865
0.0437998
0.0362998
0.029414
0.0231285
0.0174293
0.0123079
0.00775653
0.00376738
0.000333079
-0.00255353
-0.00489951
-0.0067119
-0.00799779
-0.0087644
-0.00901905
-0.00876927
-0.00802276
-0.00678746
-0.00507148
-0.00288317
-0.000231098
0.002876
0.0064292
0.0104194
0.0148374
0.0196737
0.024919
0.0305637
0.0365982
0.0430128
0.0497978
0.0569435
0.0644402
0.0722781
0.0804477
0.0889392
0.0977431
0.10685