/*--------------------------------*- C++ -*----------------------------------*\
  =========                 |
  \\      /  F ield         | OpenFOAM: The Open Source CFD Toolbox
   \\    /   O peration     | Website:  https://openfoam.org
    \\  /    A nd           | Version:  7
     \\/     M anipulation  |
\*---------------------------------------------------------------------------*/
FoamFile
{
    version     2.0;
    format      ascii;
    class       volVectorField;
    location    "0.3875";
    object      U;
}
// * * * * * * * * * * * * * * * * * * * * * * * * * * * * * * * * * * * * * //

dimensions      [0 1 -1 0 0 0 0];

internalField   nonuniform List<vector> 
12800
(
(8.28943e-06 -8.35995e-06 0)
(3.70242e-05 -1.85519e-05 0)
(7.85077e-05 -1.97205e-05 0)
(0.00011324 -1.53598e-05 0)
(0.000129997 -8.31566e-06 0)
(0.000123891 -1.41676e-07 0)
(9.278e-05 8.34202e-06 0)
(3.60513e-05 1.66954e-05 0)
(-4.59385e-05 2.46854e-05 0)
(-0.000152242 3.21926e-05 0)
(-0.00028156 3.91577e-05 0)
(-0.000432386 4.55558e-05 0)
(-0.000603096 5.1381e-05 0)
(-0.000792014 5.66401e-05 0)
(-0.000997449 6.13472e-05 0)
(-0.00121772 6.55211e-05 0)
(-0.00145119 6.91834e-05 0)
(-0.00169627 7.23575e-05 0)
(-0.00195141 7.50684e-05 0)
(-0.00221515 7.73413e-05 0)
(-0.0024861 7.92017e-05 0)
(-0.00276291 8.06753e-05 0)
(-0.00304436 8.17874e-05 0)
(-0.00332925 8.25627e-05 0)
(-0.00361649 8.30257e-05 0)
(-0.00390507 8.32001e-05 0)
(-0.00419402 8.3109e-05 0)
(-0.00448249 8.27746e-05 0)
(-0.00476965 8.22185e-05 0)
(-0.00505479 8.14612e-05 0)
(-0.00533722 8.05224e-05 0)
(-0.00561635 7.94209e-05 0)
(-0.00589164 7.81745e-05 0)
(-0.00616259 7.68001e-05 0)
(-0.00642878 7.53137e-05 0)
(-0.00668983 7.37303e-05 0)
(-0.00694542 7.20641e-05 0)
(-0.00719526 7.03283e-05 0)
(-0.00743912 6.85352e-05 0)
(-0.00767681 6.66961e-05 0)
(-0.00790816 6.48216e-05 0)
(-0.00813306 6.29215e-05 0)
(-0.00835142 6.10046e-05 0)
(-0.00856318 5.90791e-05 0)
(-0.0087683 5.71524e-05 0)
(-0.00896678 5.52312e-05 0)
(-0.00915863 5.33214e-05 0)
(-0.00934389 5.14284e-05 0)
(-0.00952262 4.95569e-05 0)
(-0.00969487 4.77109e-05 0)
(-0.00986075 4.5894e-05 0)
(-0.0100203 4.41092e-05 0)
(-0.0101737 4.2359e-05 0)
(-0.0103211 4.06455e-05 0)
(-0.0104625 3.89702e-05 0)
(-0.010598 3.73345e-05 0)
(-0.0107279 3.57389e-05 0)
(-0.0108522 3.41839e-05 0)
(-0.0109711 3.26696e-05 0)
(-0.0110847 3.11959e-05 0)
(-0.0111931 2.97622e-05 0)
(-0.0112965 2.83676e-05 0)
(-0.011395 2.70111e-05 0)
(-0.0114888 2.56912e-05 0)
(-0.0115779 2.44067e-05 0)
(-0.0116624 2.31557e-05 0)
(-0.0117425 2.19365e-05 0)
(-0.0118183 2.07467e-05 0)
(-0.0118899 1.9584e-05 0)
(-0.0119573 1.84461e-05 0)
(-0.0120207 1.73306e-05 0)
(-0.0120801 1.62348e-05 0)
(-0.0121355 1.51559e-05 0)
(-0.0121871 1.40908e-05 0)
(-0.0122348 1.30365e-05 0)
(-0.0122787 1.19899e-05 0)
(-0.0123188 1.09481e-05 0)
(-0.0123552 9.90782e-06 0)
(-0.0123877 8.86568e-06 0)
(-0.0124165 7.81811e-06 0)
(-0.0124414 6.76158e-06 0)
(-0.0124625 5.69277e-06 0)
(-0.0124797 4.6084e-06 0)
(-0.0124929 3.50507e-06 0)
(-0.0125021 2.37915e-06 0)
(-0.0125071 1.22692e-06 0)
(-0.012508 4.47633e-08 0)
(-0.0125045 -1.1707e-06 0)
(-0.0124965 -2.42271e-06 0)
(-0.012484 -3.71454e-06 0)
(-0.0124668 -5.04956e-06 0)
(-0.0124447 -6.43111e-06 0)
(-0.0124175 -7.86239e-06 0)
(-0.0123852 -9.34633e-06 0)
(-0.0123474 -1.08857e-05 0)
(-0.0123041 -1.2483e-05 0)
(-0.012255 -1.41408e-05 0)
(-0.0121999 -1.58613e-05 0)
(-0.0121386 -1.76465e-05 0)
(-0.0120708 -1.9498e-05 0)
(-0.0119965 -2.14171e-05 0)
(-0.0119152 -2.34049e-05 0)
(-0.0118268 -2.5462e-05 0)
(-0.0117311 -2.75886e-05 0)
(-0.0116279 -2.97843e-05 0)
(-0.0115168 -3.20483e-05 0)
(-0.0113977 -3.43792e-05 0)
(-0.0112704 -3.67752e-05 0)
(-0.0111347 -3.92336e-05 0)
(-0.0109903 -4.17513e-05 0)
(-0.0108371 -4.43242e-05 0)
(-0.010675 -4.69476e-05 0)
(-0.0105037 -4.96158e-05 0)
(-0.0103231 -5.23226e-05 0)
(-0.0101332 -5.50608e-05 0)
(-0.00993386 -5.7822e-05 0)
(-0.00972503 -6.05973e-05 0)
(-0.00950671 -6.33765e-05 0)
(-0.00927892 -6.61484e-05 0)
(-0.00904173 -6.8901e-05 0)
(-0.00879525 -7.1621e-05 0)
(-0.00853963 -7.42944e-05 0)
(-0.00827507 -7.69057e-05 0)
(-0.00800184 -7.94387e-05 0)
(-0.00772026 -8.18761e-05 0)
(-0.0074307 -8.41995e-05 0)
(-0.0071336 -8.63896e-05 0)
(-0.00682947 -8.8426e-05 0)
(-0.00651889 -9.02877e-05 0)
(-0.00620251 -9.19525e-05 0)
(-0.00588105 -9.33977e-05 0)
(-0.00555532 -9.45997e-05 0)
(-0.00522619 -9.55344e-05 0)
(-0.00489463 -9.61769e-05 0)
(-0.00456167 -9.65021e-05 0)
(-0.00422845 -9.64844e-05 0)
(-0.00389616 -9.60978e-05 0)
(-0.00356611 -9.53166e-05 0)
(-0.00323965 -9.41146e-05 0)
(-0.00291824 -9.24657e-05 0)
(-0.00260341 -9.03441e-05 0)
(-0.00229677 -8.77242e-05 0)
(-0.00199999 -8.45815e-05 0)
(-0.00171482 -8.08918e-05 0)
(-0.00144305 -7.66322e-05 0)
(-0.00118655 -7.17809e-05 0)
(-0.00094721 -6.63183e-05 0)
(-0.000726944 -6.02285e-05 0)
(-0.000527675 -5.35003e-05 0)
(-0.000351298 -4.61295e-05 0)
(-0.000199636 -3.8124e-05 0)
(-7.43798e-05 -2.95121e-05 0)
(2.30123e-05 -2.03584e-05 0)
(9.14668e-05 -1.07913e-05 0)
(0.000130554 -1.06041e-06 0)
(0.000140908 8.35478e-06 0)
(0.000124843 1.65503e-05 0)
(8.77248e-05 2.1794e-05 0)
(4.20469e-05 2.08638e-05 0)
(9.63396e-06 9.63316e-06 0)
(1.8541e-05 -3.71584e-05 0)
(7.03312e-05 -7.03409e-05 0)
(0.000132048 -6.7785e-05 0)
(0.000170169 -4.21088e-05 0)
(0.000163407 -3.16769e-06 0)
(0.000100327 4.27072e-05 0)
(-2.53368e-05 9.15478e-05 0)
(-0.000216323 0.000140873 0)
(-0.000472842 0.000189136 0)
(-0.000793389 0.000235375 0)
(-0.00117532 0.000279 0)
(-0.00161525 0.000319655 0)
(-0.00210929 0.000357145 0)
(-0.0026533 0.000391378 0)
(-0.00324297 0.000422339 0)
(-0.00387395 0.000450062 0)
(-0.00454189 0.000474619 0)
(-0.00524253 0.000496106 0)
(-0.00597173 0.000514641 0)
(-0.00672548 0.000530352 0)
(-0.00749994 0.000543376 0)
(-0.00829145 0.000553858 0)
(-0.00909651 0.000561944 0)
(-0.00991186 0.000567782 0)
(-0.0107344 0.000571521 0)
(-0.0115613 0.000573307 0)
(-0.0123897 0.000573285 0)
(-0.0132174 0.000571597 0)
(-0.0140418 0.00056838 0)
(-0.014861 0.000563768 0)
(-0.015673 0.00055789 0)
(-0.016476 0.000550869 0)
(-0.0172685 0.000542823 0)
(-0.0180491 0.000533866 0)
(-0.0188165 0.000524104 0)
(-0.0195696 0.000513639 0)
(-0.0203074 0.000502566 0)
(-0.0210291 0.000490977 0)
(-0.021734 0.000478954 0)
(-0.0224215 0.000466576 0)
(-0.0230911 0.000453916 0)
(-0.0237424 0.000441042 0)
(-0.0243752 0.000428016 0)
(-0.0249891 0.000414894 0)
(-0.0255842 0.00040173 0)
(-0.0261604 0.000388568 0)
(-0.0267176 0.000375454 0)
(-0.0272559 0.000362423 0)
(-0.0277755 0.000349511 0)
(-0.0282766 0.000336747 0)
(-0.0287593 0.000324156 0)
(-0.0292239 0.000311761 0)
(-0.0296707 0.000299581 0)
(-0.0300999 0.000287631 0)
(-0.030512 0.000275924 0)
(-0.0309072 0.000264468 0)
(-0.0312859 0.000253271 0)
(-0.0316486 0.000242337 0)
(-0.0319954 0.000231667 0)
(-0.0323269 0.000221261 0)
(-0.0326433 0.000211117 0)
(-0.0329451 0.00020123 0)
(-0.0332326 0.000191593 0)
(-0.0335061 0.000182198 0)
(-0.033766 0.000173036 0)
(-0.0340126 0.000164095 0)
(-0.0342463 0.000155363 0)
(-0.0344672 0.000146827 0)
(-0.0346757 0.000138471 0)
(-0.034872 0.000130279 0)
(-0.0350563 0.000122235 0)
(-0.0352289 0.00011432 0)
(-0.0353898 0.000106515 0)
(-0.0355393 9.88022e-05 0)
(-0.0356774 9.11598e-05 0)
(-0.0358043 8.35671e-05 0)
(-0.0359199 7.6003e-05 0)
(-0.0360243 6.84457e-05 0)
(-0.0361176 6.08729e-05 0)
(-0.0361996 5.32617e-05 0)
(-0.0362703 4.55887e-05 0)
(-0.0363295 3.78307e-05 0)
(-0.0363772 2.99643e-05 0)
(-0.0364132 2.19663e-05 0)
(-0.0364372 1.38132e-05 0)
(-0.0364491 5.48135e-06 0)
(-0.0364485 -3.05294e-06 0)
(-0.0364351 -1.18128e-05 0)
(-0.0364087 -2.08209e-05 0)
(-0.0363688 -3.00992e-05 0)
(-0.036315 -3.96695e-05 0)
(-0.0362469 -4.9553e-05 0)
(-0.0361641 -5.97701e-05 0)
(-0.036066 -7.03399e-05 0)
(-0.0359521 -8.12805e-05 0)
(-0.0358219 -9.26087e-05 0)
(-0.0356749 -0.00010434 0)
(-0.0355104 -0.000116488 0)
(-0.0353279 -0.000129064 0)
(-0.0351267 -0.000142079 0)
(-0.0349063 -0.000155539 0)
(-0.0346659 -0.000169451 0)
(-0.034405 -0.000183816 0)
(-0.0341229 -0.000198633 0)
(-0.033819 -0.000213899 0)
(-0.0334926 -0.000229606 0)
(-0.0331432 -0.000245743 0)
(-0.0327702 -0.000262295 0)
(-0.032373 -0.000279241 0)
(-0.031951 -0.000296559 0)
(-0.0315039 -0.000314218 0)
(-0.0310311 -0.000332185 0)
(-0.0305323 -0.00035042 0)
(-0.0300071 -0.000368877 0)
(-0.0294553 -0.000387506 0)
(-0.0288767 -0.00040625 0)
(-0.0282712 -0.000425045 0)
(-0.0276389 -0.000443821 0)
(-0.0269798 -0.000462501 0)
(-0.0262941 -0.000481004 0)
(-0.0255823 -0.000499238 0)
(-0.0248448 -0.000517107 0)
(-0.0240822 -0.000534508 0)
(-0.0232953 -0.000551331 0)
(-0.0224851 -0.000567459 0)
(-0.0216527 -0.000582769 0)
(-0.0207993 -0.000597133 0)
(-0.0199265 -0.000610415 0)
(-0.0190358 -0.000622476 0)
(-0.0181293 -0.000633171 0)
(-0.0172089 -0.000642349 0)
(-0.0162769 -0.000649857 0)
(-0.015336 -0.000655539 0)
(-0.0143887 -0.000659235 0)
(-0.013438 -0.000660784 0)
(-0.0124872 -0.000660025 0)
(-0.0115396 -0.000656795 0)
(-0.0105989 -0.000650934 0)
(-0.00966878 -0.000642284 0)
(-0.0087534 -0.00063069 0)
(-0.00785697 -0.000616003 0)
(-0.00698392 -0.000598081 0)
(-0.00613884 -0.000576793 0)
(-0.0053265 -0.00055202 0)
(-0.00455175 -0.000523657 0)
(-0.00381957 -0.000491625 0)
(-0.00313497 -0.000455871 0)
(-0.00250294 -0.000416385 0)
(-0.0019284 -0.000373207 0)
(-0.00141606 -0.00032646 0)
(-0.000970272 -0.000276375 0)
(-0.000594874 -0.000223352 0)
(-0.000292844 -0.000168046 0)
(-6.58951e-05 -0.000111513 0)
(8.61463e-05 -5.54471e-05 0)
(0.000166248 -2.58178e-06 0)
(0.000181301 4.26805e-05 0)
(0.00014397 7.32486e-05 0)
(7.79796e-05 7.79473e-05 0)
(2.08625e-05 4.20333e-05 0)
(1.98017e-05 -7.86753e-05 0)
(6.81032e-05 -0.000132141 0)
(0.000111209 -0.000110711 0)
(0.000110413 -3.94894e-05 0)
(4.045e-05 6.29418e-05 0)
(-0.000113543 0.000183365 0)
(-0.000360465 0.000312634 0)
(-0.000704713 0.000444539 0)
(-0.00114723 0.000574903 0)
(-0.00168647 0.00070093 0)
(-0.00231908 0.000820771 0)
(-0.00304047 0.00093323 0)
(-0.00384522 0.00103757 0)
(-0.00472735 0.00113337 0)
(-0.00568054 0.00122045 0)
(-0.0066983 0.00129879 0)
(-0.00777412 0.00136849 0)
(-0.00890151 0.00142975 0)
(-0.0100741 0.00148284 0)
(-0.0112858 0.00152806 0)
(-0.0125306 0.00156575 0)
(-0.0138027 0.00159629 0)
(-0.0150968 0.00162007 0)
(-0.0164076 0.00163746 0)
(-0.0177304 0.00164889 0)
(-0.0190605 0.00165474 0)
(-0.0203936 0.00165541 0)
(-0.0217259 0.0016513 0)
(-0.0230536 0.00164279 0)
(-0.0243733 0.00163025 0)
(-0.0256821 0.00161403 0)
(-0.0269769 0.0015945 0)
(-0.0282554 0.00157198 0)
(-0.0295151 0.0015468 0)
(-0.0307542 0.00151925 0)
(-0.0319706 0.00148963 0)
(-0.0331629 0.00145822 0)
(-0.0343298 0.00142526 0)
(-0.0354699 0.00139101 0)
(-0.0365823 0.00135568 0)
(-0.0376662 0.00131949 0)
(-0.038721 0.00128263 0)
(-0.0397462 0.00124528 0)
(-0.0407413 0.00120761 0)
(-0.0417062 0.00116977 0)
(-0.0426407 0.0011319 0)
(-0.0435448 0.00109411 0)
(-0.0444186 0.00105653 0)
(-0.0452623 0.00101925 0)
(-0.0460762 0.00098236 0)
(-0.0468604 0.000945934 0)
(-0.0476155 0.00091004 0)
(-0.0483418 0.000874732 0)
(-0.0490398 0.000840058 0)
(-0.0497101 0.000806055 0)
(-0.050353 0.000772752 0)
(-0.0509692 0.00074017 0)
(-0.0515593 0.000708323 0)
(-0.0521238 0.000677217 0)
(-0.0526633 0.000646852 0)
(-0.0531784 0.000617222 0)
(-0.0536696 0.000588315 0)
(-0.0541375 0.000560115 0)
(-0.0545827 0.000532598 0)
(-0.0550057 0.000505739 0)
(-0.0554069 0.000479505 0)
(-0.0557869 0.000453863 0)
(-0.0561462 0.000428772 0)
(-0.056485 0.000404192 0)
(-0.0568039 0.000380077 0)
(-0.0571032 0.000356378 0)
(-0.0573831 0.000333043 0)
(-0.057644 0.000310021 0)
(-0.057886 0.000287256 0)
(-0.0581094 0.000264689 0)
(-0.0583142 0.000242262 0)
(-0.0585006 0.000219912 0)
(-0.0586686 0.000197578 0)
(-0.0588181 0.000175195 0)
(-0.0589492 0.000152699 0)
(-0.0590617 0.000130024 0)
(-0.0591553 0.000107104 0)
(-0.05923 8.38709e-05 0)
(-0.0592854 6.02587e-05 0)
(-0.0593211 3.62e-05 0)
(-0.0593369 1.16283e-05 0)
(-0.0593322 -1.35229e-05 0)
(-0.0593066 -3.93191e-05 0)
(-0.0592596 -6.5825e-05 0)
(-0.0591905 -9.31035e-05 0)
(-0.0590987 -0.000121216 0)
(-0.0589835 -0.000150221 0)
(-0.0588443 -0.000180176 0)
(-0.0586801 -0.000211135 0)
(-0.0584903 -0.000243148 0)
(-0.0582739 -0.000276262 0)
(-0.0580301 -0.000310518 0)
(-0.0577579 -0.000345955 0)
(-0.0574565 -0.000382605 0)
(-0.0571248 -0.000420494 0)
(-0.0567619 -0.00045964 0)
(-0.0563667 -0.000500057 0)
(-0.0559384 -0.000541748 0)
(-0.0554758 -0.000584708 0)
(-0.054978 -0.000628925 0)
(-0.054444 -0.000674374 0)
(-0.053873 -0.000721019 0)
(-0.0532639 -0.000768816 0)
(-0.052616 -0.000817704 0)
(-0.0519283 -0.000867612 0)
(-0.0512002 -0.000918453 0)
(-0.0504311 -0.000970128 0)
(-0.0496202 -0.00102252 0)
(-0.0487672 -0.0010755 0)
(-0.0478717 -0.00112891 0)
(-0.0469334 -0.0011826 0)
(-0.0459523 -0.00123637 0)
(-0.0449283 -0.00129003 0)
(-0.0438618 -0.00134335 0)
(-0.0427531 -0.0013961 0)
(-0.0416029 -0.00144802 0)
(-0.0404119 -0.00149883 0)
(-0.0391813 -0.00154824 0)
(-0.0379122 -0.00159593 0)
(-0.0366063 -0.00164158 0)
(-0.0352653 -0.00168483 0)
(-0.0338914 -0.00172531 0)
(-0.032487 -0.00176265 0)
(-0.0310547 -0.00179644 0)
(-0.0295975 -0.00182629 0)
(-0.0281188 -0.00185177 0)
(-0.0266223 -0.00187245 0)
(-0.025112 -0.00188788 0)
(-0.0235921 -0.00189764 0)
(-0.0220675 -0.00190126 0)
(-0.0205431 -0.00189831 0)
(-0.0190243 -0.00188834 0)
(-0.0175168 -0.00187092 0)
(-0.0160266 -0.00184561 0)
(-0.0145601 -0.00181201 0)
(-0.0131238 -0.00176972 0)
(-0.0117247 -0.00171839 0)
(-0.01037 -0.00165769 0)
(-0.0090668 -0.00158733 0)
(-0.00782272 -0.0015071 0)
(-0.00664527 -0.00141685 0)
(-0.00554201 -0.00131653 0)
(-0.00452038 -0.00120625 0)
(-0.0035876 -0.00108626 0)
(-0.00275047 -0.000957092 0)
(-0.00201513 -0.000819604 0)
(-0.00138676 -0.000675151 0)
(-0.000869136 -0.000525789 0)
(-0.000464035 -0.000374608 0)
(-0.000170465 -0.000226224 0)
(1.64049e-05 -8.75095e-05 0)
(0.000106418 3.13564e-05 0)
(0.000116095 0.000115546 0)
(7.35479e-05 0.000144009 0)
(2.18474e-05 8.77549e-05 0)
(1.55787e-05 -0.000113704 0)
(4.29214e-05 -0.000170719 0)
(4.08982e-05 -0.000110119 0)
(-2.81138e-05 2.96917e-05 0)
(-0.000189814 0.00022117 0)
(-0.000460395 0.000443879 0)
(-0.000849931 0.000682949 0)
(-0.00136365 0.000927788 0)
(-0.00200293 0.00117092 0)
(-0.00276618 0.00140713 0)
(-0.00364962 0.0016328 0)
(-0.00464783 0.00184549 0)
(-0.00575425 0.00204361 0)
(-0.00696154 0.00222619 0)
(-0.00826182 0.00239271 0)
(-0.00964692 0.00254299 0)
(-0.0111085 0.00267711 0)
(-0.0126383 0.00279535 0)
(-0.0142282 0.00289811 0)
(-0.01587 0.00298593 0)
(-0.017556 0.00305939 0)
(-0.0192788 0.00311916 0)
(-0.0210311 0.00316593 0)
(-0.0228061 0.00320044 0)
(-0.0245974 0.00322341 0)
(-0.0263989 0.0032356 0)
(-0.0282049 0.00323775 0)
(-0.0300102 0.0032306 0)
(-0.0318097 0.00321488 0)
(-0.0335989 0.0031913 0)
(-0.0353737 0.00316054 0)
(-0.0371303 0.00312327 0)
(-0.0388652 0.00308014 0)
(-0.0405753 0.00303176 0)
(-0.0422578 0.00297872 0)
(-0.0439103 0.00292158 0)
(-0.0455305 0.00286087 0)
(-0.0471166 0.0027971 0)
(-0.0486669 0.00273072 0)
(-0.0501801 0.00266218 0)
(-0.0516551 0.0025919 0)
(-0.0530908 0.00252024 0)
(-0.0544867 0.00244757 0)
(-0.0558421 0.00237421 0)
(-0.0571567 0.00230045 0)
(-0.0584304 0.00222657 0)
(-0.059663 0.00215281 0)
(-0.0608546 0.00207938 0)
(-0.0620055 0.00200649 0)
(-0.063116 0.00193431 0)
(-0.0641863 0.00186299 0)
(-0.0652171 0.00179266 0)
(-0.0662088 0.00172344 0)
(-0.067162 0.00165541 0)
(-0.0680775 0.00158865 0)
(-0.0689558 0.00152323 0)
(-0.0697978 0.00145917 0)
(-0.0706041 0.00139652 0)
(-0.0713755 0.00133529 0)
(-0.0721128 0.00127548 0)
(-0.0728167 0.00121708 0)
(-0.0734881 0.00116006 0)
(-0.0741275 0.00110441 0)
(-0.0747358 0.00105006 0)
(-0.0753137 0.000996984 0)
(-0.0758618 0.000945111 0)
(-0.0763808 0.000894375 0)
(-0.0768712 0.000844701 0)
(-0.0773336 0.00079601 0)
(-0.0777686 0.000748214 0)
(-0.0781765 0.000701219 0)
(-0.0785578 0.000654927 0)
(-0.0789129 0.000609235 0)
(-0.079242 0.000564034 0)
(-0.0795454 0.000519214 0)
(-0.0798233 0.000474659 0)
(-0.0800757 0.00043025 0)
(-0.0803027 0.000385867 0)
(-0.0805043 0.000341386 0)
(-0.0806803 0.00029668 0)
(-0.0808307 0.000251623 0)
(-0.0809552 0.000206087 0)
(-0.0810535 0.000159941 0)
(-0.0811252 0.000113056 0)
(-0.0811699 6.53024e-05 0)
(-0.081187 1.65512e-05 0)
(-0.081176 -3.33256e-05 0)
(-0.0811363 -8.44543e-05 0)
(-0.081067 -0.000136959 0)
(-0.0809675 -0.000190961 0)
(-0.0808368 -0.000246578 0)
(-0.080674 -0.000303924 0)
(-0.0804783 -0.000363107 0)
(-0.0802484 -0.000424229 0)
(-0.0799834 -0.000487388 0)
(-0.0796822 -0.000552671 0)
(-0.0793434 -0.000620158 0)
(-0.0789661 -0.00068992 0)
(-0.0785487 -0.000762016 0)
(-0.0780902 -0.000836494 0)
(-0.0775892 -0.000913389 0)
(-0.0770444 -0.000992721 0)
(-0.0764544 -0.0010745 0)
(-0.075818 -0.0011587 0)
(-0.0751339 -0.0012453 0)
(-0.0744007 -0.00133426 0)
(-0.0736174 -0.00142549 0)
(-0.0727826 -0.0015189 0)
(-0.0718953 -0.00161439 0)
(-0.0709543 -0.00171179 0)
(-0.0699589 -0.00181095 0)
(-0.068908 -0.00191166 0)
(-0.067801 -0.0020137 0)
(-0.0666372 -0.0021168 0)
(-0.0654163 -0.00222068 0)
(-0.0641379 -0.002325 0)
(-0.062802 -0.00242942 0)
(-0.0614086 -0.00253354 0)
(-0.0599582 -0.00263692 0)
(-0.0584514 -0.00273911 0)
(-0.0568889 -0.00283961 0)
(-0.055272 -0.00293787 0)
(-0.0536022 -0.00303333 0)
(-0.0518811 -0.00312537 0)
(-0.0501109 -0.00321336 0)
(-0.0482941 -0.00329663 0)
(-0.0464335 -0.00337446 0)
(-0.0445324 -0.00344613 0)
(-0.0425944 -0.00351087 0)
(-0.0406236 -0.00356789 0)
(-0.0386245 -0.00361641 0)
(-0.0366019 -0.00365558 0)
(-0.0345613 -0.00368458 0)
(-0.0325085 -0.00370257 0)
(-0.0304496 -0.00370869 0)
(-0.0283915 -0.00370211 0)
(-0.0263412 -0.00368199 0)
(-0.0243063 -0.00364752 0)
(-0.0222948 -0.00359791 0)
(-0.0203149 -0.0035324 0)
(-0.0183755 -0.0034503 0)
(-0.0164856 -0.00335095 0)
(-0.0146543 -0.00323381 0)
(-0.0128913 -0.0030984 0)
(-0.0112062 -0.00294439 0)
(-0.00960868 -0.00277163 0)
(-0.00810833 -0.00258015 0)
(-0.00671458 -0.00237028 0)
(-0.00543643 -0.00214272 0)
(-0.00428227 -0.00189866 0)
(-0.00325953 -0.00163995 0)
(-0.0023743 -0.00136935 0)
(-0.00163088 -0.00109091 0)
(-0.00103107 -0.00081042 0)
(-0.000573378 -0.000536159 0)
(-0.00025203 -0.00027988 0)
(-5.58454e-05 -5.81464e-05 0)
(3.31958e-05 0.000106141 0)
(4.35698e-05 0.000181873 0)
(1.67366e-05 0.000125146 0)
(8.69502e-06 -0.000131077 0)
(4.49024e-06 -0.000164857 0)
(-6.07432e-05 -4.07399e-05 0)
(-0.000218726 0.000191225 0)
(-0.000492962 0.000495188 0)
(-0.000899435 0.000843895 0)
(-0.00144821 0.00121689 0)
(-0.00214454 0.0015991 0)
(-0.00298975 0.00197952 0)
(-0.00398205 0.00235019 0)
(-0.00511722 0.00270546 0)
(-0.00638917 0.00304134 0)
(-0.00779047 0.00335515 0)
(-0.00931268 0.00364516 0)
(-0.0109467 0.00391036 0)
(-0.0126829 0.00415032 0)
(-0.0145117 0.004365 0)
(-0.0164231 0.0045547 0)
(-0.0184075 0.00471997 0)
(-0.0204552 0.00486154 0)
(-0.0225569 0.0049803 0)
(-0.0247035 0.00507721 0)
(-0.0268865 0.00515334 0)
(-0.0290975 0.00520981 0)
(-0.0313286 0.00524774 0)
(-0.0335725 0.00526832 0)
(-0.0358221 0.0052727 0)
(-0.0380711 0.00526206 0)
(-0.0403132 0.00523753 0)
(-0.042543 0.00520025 0)
(-0.0447552 0.00515131 0)
(-0.0469452 0.00509178 0)
(-0.0491086 0.00502269 0)
(-0.0512417 0.00494502 0)
(-0.0533409 0.00485973 0)
(-0.0554031 0.0047677 0)
(-0.0574256 0.00466981 0)
(-0.0594061 0.00456685 0)
(-0.0613424 0.00445959 0)
(-0.0632329 0.00434873 0)
(-0.0650761 0.00423495 0)
(-0.0668708 0.00411886 0)
(-0.068616 0.00400103 0)
(-0.0703112 0.003882 0)
(-0.0719557 0.00376225 0)
(-0.0735494 0.00364222 0)
(-0.0750921 0.0035223 0)
(-0.0765839 0.00340286 0)
(-0.0780249 0.00328422 0)
(-0.0794156 0.00316666 0)
(-0.0807564 0.00305043 0)
(-0.0820478 0.00293576 0)
(-0.0832906 0.00282282 0)
(-0.0844853 0.00271177 0)
(-0.0856328 0.00260274 0)
(-0.0867339 0.00249582 0)
(-0.0877895 0.00239108 0)
(-0.0888005 0.00228859 0)
(-0.0897678 0.00218835 0)
(-0.0906923 0.00209039 0)
(-0.091575 0.00199468 0)
(-0.0924168 0.0019012 0)
(-0.0932186 0.00180989 0)
(-0.0939812 0.00172069 0)
(-0.0947055 0.00163351 0)
(-0.0953924 0.00154827 0)
(-0.0960426 0.00146486 0)
(-0.0966568 0.00138316 0)
(-0.0972358 0.00130303 0)
(-0.0977801 0.00122433 0)
(-0.0982903 0.00114693 0)
(-0.098767 0.00107065 0)
(-0.0992104 0.000995336 0)
(-0.0996211 0.000920808 0)
(-0.0999993 0.000846888 0)
(-0.100345 0.00077339 0)
(-0.100659 0.000700123 0)
(-0.10094 0.000626891 0)
(-0.10119 0.000553495 0)
(-0.101407 0.000479732 0)
(-0.101592 0.000405396 0)
(-0.101744 0.00033028 0)
(-0.101862 0.000254175 0)
(-0.101948 0.000176874 0)
(-0.101999 9.8166e-05 0)
(-0.102015 1.78444e-05 0)
(-0.101996 -6.42968e-05 0)
(-0.10194 -0.00014846 0)
(-0.101848 -0.000234846 0)
(-0.101717 -0.000323648 0)
(-0.101547 -0.000415055 0)
(-0.101336 -0.000509248 0)
(-0.101085 -0.000606401 0)
(-0.10079 -0.000706677 0)
(-0.100451 -0.000810229 0)
(-0.100067 -0.000917197 0)
(-0.099636 -0.00102771 0)
(-0.0991564 -0.00114187 0)
(-0.0986269 -0.00125978 0)
(-0.0980459 -0.00138151 0)
(-0.0974119 -0.00150711 0)
(-0.0967231 -0.00163661 0)
(-0.0959781 -0.00177001 0)
(-0.0951752 -0.00190729 0)
(-0.0943129 -0.0020484 0)
(-0.0933896 -0.00219325 0)
(-0.0924039 -0.00234172 0)
(-0.0913542 -0.00249365 0)
(-0.0902394 -0.00264886 0)
(-0.0890581 -0.00280709 0)
(-0.0878091 -0.00296807 0)
(-0.0864915 -0.00313149 0)
(-0.0851044 -0.00329695 0)
(-0.0836471 -0.00346404 0)
(-0.0821191 -0.00363229 0)
(-0.0805202 -0.00380116 0)
(-0.0788502 -0.00397008 0)
(-0.0771094 -0.0041384 0)
(-0.0752983 -0.00430544 0)
(-0.0734176 -0.00447044 0)
(-0.0714685 -0.00463258 0)
(-0.0694524 -0.00479101 0)
(-0.0673712 -0.00494481 0)
(-0.0652271 -0.00509298 0)
(-0.0630227 -0.00523451 0)
(-0.0607612 -0.00536831 0)
(-0.0584461 -0.00549325 0)
(-0.0560814 -0.00560814 0)
(-0.0536716 -0.00571178 0)
(-0.0512218 -0.00580291 0)
(-0.0487374 -0.00588024 0)
(-0.0462245 -0.00594247 0)
(-0.0436897 -0.00598827 0)
(-0.0411402 -0.0060163 0)
(-0.0385836 -0.00602522 0)
(-0.0360281 -0.00601372 0)
(-0.0334823 -0.00598048 0)
(-0.0309555 -0.00592424 0)
(-0.0284574 -0.00584377 0)
(-0.025998 -0.00573793 0)
(-0.0235878 -0.00560564 0)
(-0.0212378 -0.00544596 0)
(-0.0189591 -0.00525807 0)
(-0.016763 -0.00504135 0)
(-0.014661 -0.00479537 0)
(-0.0126646 -0.00452003 0)
(-0.0107851 -0.00421555 0)
(-0.00903349 -0.00388264 0)
(-0.00742021 -0.00352262 0)
(-0.00595487 -0.00313756 0)
(-0.00464593 -0.0027306 0)
(-0.00350024 -0.00230625 0)
(-0.00252256 -0.00187087 0)
(-0.00171492 -0.00143332 0)
(-0.00107587 -0.0010058 0)
(-0.000599562 -0.00060506 0)
(-0.000274824 -0.000253866 0)
(-8.38767e-05 1.73065e-05 0)
(-8.47251e-07 0.000168136 0)
(8.74011e-06 0.000141887 0)
(6.67062e-07 -0.000125875 0)
(-4.10631e-05 -0.00010293 0)
(-0.000181036 0.0001127 0)
(-0.000442004 0.000461959 0)
(-0.000843369 0.000901882 0)
(-0.00139971 0.00139914 0)
(-0.00212012 0.00192811 0)
(-0.00300912 0.00246942 0)
(-0.00406752 0.00300855 0)
(-0.00529302 0.00353473 0)
(-0.00668085 0.00404007 0)
(-0.00822427 0.00451891 0)
(-0.00991504 0.00496728 0)
(-0.0117438 0.00538255 0)
(-0.0137004 0.00576312 0)
(-0.0157742 0.00610815 0)
(-0.0179542 0.00641745 0)
(-0.0202293 0.00669129 0)
(-0.0225884 0.00693031 0)
(-0.0250206 0.00713545 0)
(-0.0275153 0.00730787 0)
(-0.030062 0.0074489 0)
(-0.0326509 0.00755998 0)
(-0.0352722 0.00764266 0)
(-0.0379171 0.00769854 0)
(-0.0405768 0.00772925 0)
(-0.0432432 0.00773644 0)
(-0.0459088 0.00772177 0)
(-0.0485664 0.00768688 0)
(-0.0512097 0.00763338 0)
(-0.0538324 0.00756284 0)
(-0.0564291 0.00747679 0)
(-0.0589947 0.00737673 0)
(-0.0615247 0.00726408 0)
(-0.064015 0.0071402 0)
(-0.0664619 0.00700641 0)
(-0.0688621 0.00686394 0)
(-0.0712129 0.00671397 0)
(-0.0735118 0.00655761 0)
(-0.0757567 0.0063959 0)
(-0.0779459 0.00622981 0)
(-0.0800779 0.00606024 0)
(-0.0821516 0.00588803 0)
(-0.0841662 0.00571395 0)
(-0.086121 0.00553872 0)
(-0.0880157 0.00536298 0)
(-0.0898502 0.00518732 0)
(-0.0916245 0.00501227 0)
(-0.0933387 0.0048383 0)
(-0.0949933 0.00466583 0)
(-0.0965887 0.00449524 0)
(-0.0981257 0.00432684 0)
(-0.0996049 0.0041609 0)
(-0.101027 0.00399766 0)
(-0.102393 0.00383731 0)
(-0.103704 0.00367998 0)
(-0.104961 0.0035258 0)
(-0.106165 0.00337485 0)
(-0.107317 0.00322715 0)
(-0.108418 0.00308273 0)
(-0.109469 0.00294156 0)
(-0.110471 0.00280361 0)
(-0.111426 0.0026688 0)
(-0.112334 0.00253704 0)
(-0.113196 0.00240822 0)
(-0.114013 0.0022822 0)
(-0.114787 0.00215882 0)
(-0.115517 0.00203792 0)
(-0.116205 0.0019193 0)
(-0.116852 0.00180276 0)
(-0.117458 0.00168808 0)
(-0.118024 0.00157504 0)
(-0.11855 0.00146339 0)
(-0.119036 0.00135287 0)
(-0.119484 0.00124324 0)
(-0.119893 0.00113421 0)
(-0.120263 0.00102551 0)
(-0.120595 0.000916853 0)
(-0.120888 0.000807953 0)
(-0.121142 0.000698512 0)
(-0.121358 0.000588232 0)
(-0.121534 0.000476812 0)
(-0.12167 0.00036395 0)
(-0.121767 0.00024934 0)
(-0.121822 0.000132682 0)
(-0.121835 1.36724e-05 0)
(-0.121807 -0.000107986 0)
(-0.121734 -0.000232587 0)
(-0.121617 -0.000360419 0)
(-0.121455 -0.000491764 0)
(-0.121246 -0.000626893 0)
(-0.120988 -0.000766069 0)
(-0.120681 -0.000909541 0)
(-0.120323 -0.00105754 0)
(-0.119913 -0.0012103 0)
(-0.119448 -0.001368 0)
(-0.118928 -0.00153084 0)
(-0.11835 -0.00169896 0)
(-0.117712 -0.0018725 0)
(-0.117014 -0.00205156 0)
(-0.116252 -0.00223622 0)
(-0.115426 -0.0024265 0)
(-0.114533 -0.00262241 0)
(-0.113572 -0.00282391 0)
(-0.11254 -0.00303091 0)
(-0.111436 -0.00324329 0)
(-0.110258 -0.00346086 0)
(-0.109005 -0.00368339 0)
(-0.107675 -0.00391059 0)
(-0.106267 -0.00414211 0)
(-0.104778 -0.00437753 0)
(-0.103209 -0.00461638 0)
(-0.101559 -0.00485811 0)
(-0.099825 -0.00510209 0)
(-0.0980084 -0.00534763 0)
(-0.0961084 -0.00559397 0)
(-0.0941249 -0.00584024 0)
(-0.0920583 -0.00608552 0)
(-0.0899092 -0.00632879 0)
(-0.0876785 -0.00656897 0)
(-0.0853675 -0.00680486 0)
(-0.0829782 -0.00703522 0)
(-0.0805125 -0.0072587 0)
(-0.0779733 -0.00747389 0)
(-0.0753636 -0.00767929 0)
(-0.0726871 -0.00787332 0)
(-0.0699479 -0.00805437 0)
(-0.0671508 -0.00822071 0)
(-0.0643011 -0.00837061 0)
(-0.0614046 -0.00850224 0)
(-0.0584679 -0.00861377 0)
(-0.0554979 -0.00870331 0)
(-0.0525025 -0.00876897 0)
(-0.0494898 -0.00880882 0)
(-0.0464688 -0.00882098 0)
(-0.043449 -0.00880355 0)
(-0.0404404 -0.00875468 0)
(-0.0374538 -0.00867261 0)
(-0.0345002 -0.00855561 0)
(-0.0315913 -0.00840209 0)
(-0.0287392 -0.0082106 0)
(-0.0259563 -0.00797986 0)
(-0.0232555 -0.0077088 0)
(-0.0206495 -0.00739665 0)
(-0.0181515 -0.00704295 0)
(-0.0157744 -0.00664771 0)
(-0.0135309 -0.00621144 0)
(-0.0114334 -0.00573535 0)
(-0.00949352 -0.00522151 0)
(-0.00772186 -0.00467311 0)
(-0.00612779 -0.00409473 0)
(-0.00471894 -0.00349285 0)
(-0.00350066 -0.00287632 0)
(-0.00247552 -0.00225717 0)
(-0.00164263 -0.00165153 0)
(-0.00099695 -0.00108091 0)
(-0.000528357 -0.000573809 0)
(-0.000220679 -0.000167377 0)
(-5.27526e-05 9.02854e-05 0)
(-4.33836e-07 0.000132729 0)
(-7.72423e-06 -9.58088e-05 0)
(-8.99916e-05 2.18077e-05 0)
(-0.000311412 0.000359932 0)
(-0.000684143 0.00085317 0)
(-0.00122225 0.00145289 0)
(-0.00193799 0.00212065 0)
(-0.00283871 0.00282627 0)
(-0.00392759 0.00354645 0)
(-0.00520442 0.00426335 0)
(-0.00666609 0.00496344 0)
(-0.00830708 0.00563659 0)
(-0.0101199 0.00627539 0)
(-0.0120955 0.00687451 0)
(-0.0142237 0.00743033 0)
(-0.0164934 0.00794052 0)
(-0.018893 0.00840383 0)
(-0.0214104 0.00881979 0)
(-0.0240334 0.00918861 0)
(-0.0267499 0.00951101 0)
(-0.0295478 0.00978811 0)
(-0.0324152 0.0100214 0)
(-0.0353407 0.0102124 0)
(-0.0383131 0.0103632 0)
(-0.0413217 0.0104756 0)
(-0.0443563 0.0105519 0)
(-0.0474074 0.010594 0)
(-0.0504658 0.0106043 0)
(-0.053523 0.0105849 0)
(-0.056571 0.010538 0)
(-0.0596023 0.0104658 0)
(-0.0626103 0.0103703 0)
(-0.0655885 0.0102537 0)
(-0.0685313 0.0101179 0)
(-0.0714335 0.00996489 0)
(-0.0742904 0.00979648 0)
(-0.0770979 0.00961444 0)
(-0.0798521 0.00942047 0)
(-0.08255 0.00921616 0)
(-0.0851887 0.00900301 0)
(-0.0877658 0.00878245 0)
(-0.0902793 0.00855579 0)
(-0.0927275 0.00832426 0)
(-0.0951091 0.00808902 0)
(-0.0974231 0.00785112 0)
(-0.0996689 0.00761152 0)
(-0.101846 0.00737113 0)
(-0.103954 0.00713073 0)
(-0.105993 0.00689107 0)
(-0.107963 0.00665278 0)
(-0.109865 0.00641645 0)
(-0.1117 0.00618259 0)
(-0.113467 0.00595163 0)
(-0.115168 0.00572396 0)
(-0.116803 0.0054999 0)
(-0.118375 0.0052797 0)
(-0.119883 0.00506358 0)
(-0.121328 0.00485169 0)
(-0.122713 0.00464413 0)
(-0.124038 0.00444097 0)
(-0.125304 0.00424223 0)
(-0.126513 0.00404789 0)
(-0.127666 0.0038579 0)
(-0.128763 0.00367215 0)
(-0.129807 0.00349054 0)
(-0.130798 0.00331289 0)
(-0.131738 0.00313904 0)
(-0.132626 0.00296876 0)
(-0.133465 0.00280184 0)
(-0.134256 0.00263801 0)
(-0.134998 0.002477 0)
(-0.135693 0.00231851 0)
(-0.136341 0.00216223 0)
(-0.136944 0.00200783 0)
(-0.137501 0.00185498 0)
(-0.138013 0.00170331 0)
(-0.138479 0.00155245 0)
(-0.138902 0.00140204 0)
(-0.139279 0.00125168 0)
(-0.139612 0.00110098 0)
(-0.1399 0.000949545 0)
(-0.140143 0.00079696 0)
(-0.14034 0.000642821 0)
(-0.140492 0.000486715 0)
(-0.140596 0.000328233 0)
(-0.140654 0.000166962 0)
(-0.140663 2.49523e-06 0)
(-0.140623 -0.000165572 0)
(-0.140533 -0.000337638 0)
(-0.140392 -0.000514093 0)
(-0.140198 -0.000695316 0)
(-0.13995 -0.000881674 0)
(-0.139646 -0.00107352 0)
(-0.139286 -0.0012712 0)
(-0.138866 -0.00147501 0)
(-0.138386 -0.00168526 0)
(-0.137844 -0.00190221 0)
(-0.137238 -0.00212611 0)
(-0.136566 -0.00235716 0)
(-0.135826 -0.00259554 0)
(-0.135015 -0.00284137 0)
(-0.134132 -0.00309475 0)
(-0.133175 -0.00335573 0)
(-0.132142 -0.0036243 0)
(-0.131031 -0.00390039 0)
(-0.129838 -0.00418389 0)
(-0.128564 -0.00447461 0)
(-0.127205 -0.0047723 0)
(-0.12576 -0.00507664 0)
(-0.124228 -0.00538723 0)
(-0.122606 -0.00570357 0)
(-0.120893 -0.00602511 0)
(-0.119088 -0.00635119 0)
(-0.117189 -0.00668105 0)
(-0.115197 -0.00701384 0)
(-0.11311 -0.00734862 0)
(-0.110929 -0.00768434 0)
(-0.108652 -0.00801983 0)
(-0.106281 -0.00835382 0)
(-0.103816 -0.00868494 0)
(-0.101259 -0.0090117 0)
(-0.0986101 -0.0093325 0)
(-0.0958725 -0.00964563 0)
(-0.0930484 -0.00994928 0)
(-0.0901409 -0.0102415 0)
(-0.0871534 -0.0105203 0)
(-0.0840902 -0.0107836 0)
(-0.0809559 -0.0110291 0)
(-0.077756 -0.0112545 0)
(-0.0744964 -0.0114575 0)
(-0.0711838 -0.0116357 0)
(-0.0678255 -0.0117865 0)