/*--------------------------------*- C++ -*----------------------------------*\
  =========                 |
  \\      /  F ield         | OpenFOAM: The Open Source CFD Toolbox
   \\    /   O peration     | Website:  https://openfoam.org
    \\  /    A nd           | Version:  7
     \\/     M anipulation  |
\*---------------------------------------------------------------------------*/
FoamFile
{
    version     2.0;
    format      ascii;
    class       volScalarField;
    location    "0.025";
    object      p;
}
// * * * * * * * * * * * * * * * * * * * * * * * * * * * * * * * * * * * * * //

dimensions      [0 2 -2 0 0 0 0];

internalField   nonuniform List<scalar> 
51200
(
3.62851e-07
0.00438622
0.0106807
0.00875395
-0.00472324
-0.0294796
-0.0639746
-0.106057
-0.153433
-0.203959
-0.256132
-0.308496
-0.359881
-0.409248
-0.455931
-0.499247
-0.538757
-0.574329
-0.605898
-0.633608
-0.657441
-0.677843
-0.694953
-0.708957
-0.720174
-0.728922
-0.735261
-0.739351
-0.74135
-0.741845
-0.741244
-0.739674
-0.737327
-0.734173
-0.730512
-0.726458
-0.722135
-0.717437
-0.712989
-0.708666
-0.704649
-0.701103
-0.6979
-0.694939
-0.692295
-0.690109
-0.688391
-0.687242
-0.686627
-0.686234
-0.68601
-0.68615
-0.686596
-0.687157
-0.687831
-0.688637
-0.689463
-0.690314
-0.691353
-0.692504
-0.693428
-0.693947
-0.694093
-0.693917
-0.693541
-0.693177
-0.692924
-0.692662
-0.692227
-0.691599
-0.690866
-0.690107
-0.689396
-0.688788
-0.688238
-0.687606
-0.686831
-0.686012
-0.68524
-0.684489
-0.683707
-0.682899
-0.682067
-0.68117
-0.68017
-0.679091
-0.678
-0.676921
-0.67582
-0.674723
-0.673716
-0.672829
-0.672017
-0.671247
-0.670548
-0.66998
-0.66954
-0.669184
-0.668905
-0.668716
-0.668585
-0.668446
-0.668246
-0.667974
-0.667629
-0.667152
-0.666459
-0.665544
-0.66448
-0.663335
-0.662137
-0.66089
-0.659616
-0.658382
-0.657249
-0.656225
-0.655303
-0.6545
-0.653836
-0.653296
-0.65281
-0.652303
-0.651743
-0.651134
-0.650461
-0.649673
-0.648733
-0.647679
-0.646598
-0.645552
-0.644549
-0.643564
-0.642602
-0.641745
-0.641066
-0.640566
-0.640212
-0.639981
-0.639866
-0.639872
-0.639968
-0.640103
-0.640237
-0.640358
-0.640479
-0.640597
-0.640656
-0.640605
-0.640476
-0.640362
-0.640319
-0.640364
-0.640501
-0.640711
-0.640983
-0.641292
-0.641539
-0.641636
-0.64161
-0.641747
0.00282277
-0.0107153
-0.0204094
-0.0344619
-0.0551173
-0.0821082
-0.115016
-0.152804
-0.194146
-0.237721
-0.282516
-0.327621
-0.371883
-0.414752
-0.455541
-0.493847
-0.529055
-0.561213
-0.590064
-0.615477
-0.637847
-0.657245
-0.673761
-0.687432
-0.698518
-0.707592
-0.714702
-0.7198
-0.723055
-0.724739
-0.725417
-0.725242
-0.724165
-0.722361
-0.72004
-0.717239
-0.713986
-0.710653
-0.707224
-0.703869
-0.700777
-0.697911
-0.695316
-0.693016
-0.690906
-0.688921
-0.687317
-0.686283
-0.685648
-0.685296
-0.685243
-0.685418
-0.685737
-0.686201
-0.686826
-0.687533
-0.688199
-0.688808
-0.689464
-0.690201
-0.690914
-0.691498
-0.691878
-0.691947
-0.69169
-0.691269
-0.690829
-0.690393
-0.689976
-0.689588
-0.689163
-0.688637
-0.68806
-0.687524
-0.687016
-0.686458
-0.685836
-0.685211
-0.684598
-0.683955
-0.683276
-0.682588
-0.681877
-0.681081
-0.680164
-0.679169
-0.678149
-0.6771
-0.676015
-0.674942
-0.673962
-0.67309
-0.67226
-0.671459
-0.670751
-0.670161
-0.669653
-0.669206
-0.66884
-0.668576
-0.668368
-0.668125
-0.667819
-0.667484
-0.6671
-0.666575
-0.665845
-0.664915
-0.663854
-0.662726
-0.661533
-0.660271
-0.659002
-0.657793
-0.656655
-0.655584
-0.654607
-0.653759
-0.653057
-0.652477
-0.651936
-0.65136
-0.650759
-0.650162
-0.649523
-0.648769
-0.647886
-0.646916
-0.645916
-0.644925
-0.643942
-0.642939
-0.641942
-0.64106
-0.640358
-0.639802
-0.639362
-0.639059
-0.638904
-0.638874
-0.638928
-0.639018
-0.639107
-0.639187
-0.639276
-0.639367
-0.639388
-0.639291
-0.639135
-0.639031
-0.639022
-0.6391
-0.639276
-0.639564
-0.639962
-0.640443
-0.640923
-0.641296
-0.641576
-0.64199
0.00823717
-0.0214077
-0.043576
-0.0672656
-0.0939986
-0.12336
-0.155718
-0.190859
-0.228029
-0.26657
-0.30593
-0.345462
-0.384286
-0.421828
-0.457771
-0.491683
-0.52327
-0.552226
-0.578611
-0.602114
-0.622956
-0.641282
-0.657085
-0.670337
-0.681363
-0.690297
-0.697676
-0.703477
-0.707589
-0.710305
-0.711904
-0.712683
-0.712601
-0.711972
-0.710591
-0.708829
-0.706548
-0.704156
-0.701626
-0.699189
-0.696765
-0.694528
-0.692514
-0.690676
-0.689019
-0.68745
-0.68607
-0.685079
-0.684499
-0.684248
-0.684259
-0.684457
-0.68475
-0.685116
-0.68563
-0.686287
-0.68694
-0.687515
-0.688036
-0.688517
-0.688977
-0.689449
-0.689863
-0.690064
-0.68997
-0.689636
-0.68915
-0.688598
-0.688135
-0.687845
-0.687609
-0.687282
-0.68687
-0.686434
-0.685959
-0.685437
-0.684925
-0.684461
-0.683988
-0.683443
-0.682866
-0.682297
-0.681679
-0.680945
-0.680096
-0.679181
-0.678215
-0.677173
-0.676089
-0.675059
-0.674118
-0.673234
-0.67237
-0.671544
-0.67082
-0.670201
-0.669627
-0.669109
-0.668698
-0.668383
-0.668098
-0.667777
-0.667411
-0.667038
-0.666626
-0.666052
-0.665267
-0.664331
-0.663295
-0.662169
-0.660959
-0.659687
-0.658419
-0.657219
-0.656077
-0.654964
-0.653936
-0.653073
-0.652372
-0.651767
-0.651185
-0.650592
-0.650002
-0.649422
-0.648798
-0.648054
-0.647189
-0.646272
-0.645348
-0.644402
-0.643407
-0.642378
-0.641378
-0.640495
-0.639772
-0.639176
-0.638685
-0.638333
-0.638145
-0.638091
-0.638107
-0.638138
-0.638174
-0.638228
-0.638298
-0.638347
-0.638316
-0.638188
-0.638035
-0.637952
-0.637969
-0.638077
-0.638297
-0.638664
-0.639183
-0.639827
-0.640496
-0.641059
-0.641529
-0.642146
0.00536668
-0.0364186
-0.0681706
-0.098996
-0.130212
-0.161221
-0.192925
-0.225858
-0.259677
-0.294049
-0.32876
-0.363548
-0.397875
-0.430864
-0.462531
-0.492426
-0.520554
-0.546556
-0.570414
-0.591817
-0.610975
-0.628244
-0.643341
-0.656181
-0.666852
-0.675653
-0.683089
-0.689191
-0.693816
-0.69726
-0.699626
-0.701138
-0.701995
-0.702068
-0.701643
-0.700683
-0.69933
-0.697609
-0.69589
-0.694267
-0.692503
-0.690858
-0.68932
-0.687864
-0.6866
-0.685449
-0.684406
-0.683653
-0.683214
-0.682997
-0.683039
-0.683303
-0.683603
-0.683904
-0.684307
-0.684823
-0.685401
-0.686013
-0.686591
-0.687051
-0.687416
-0.687741
-0.687986
-0.688101
-0.68808
-0.687894
-0.687517
-0.687027
-0.686596
-0.686311
-0.686093
-0.685869
-0.685631
-0.685335
-0.684926
-0.684464
-0.684059
-0.683705
-0.68332
-0.682875
-0.68242
-0.681958
-0.6814
-0.680717
-0.679954
-0.679117
-0.678178
-0.677142
-0.676082
-0.675094
-0.674183
-0.673286
-0.672395
-0.671561
-0.67082
-0.670153
-0.669524
-0.668964
-0.668525
-0.668163
-0.66779
-0.667388
-0.666994
-0.666606
-0.666146
-0.665513
-0.664691
-0.663748
-0.66273
-0.661609
-0.660371
-0.659085
-0.657837
-0.656638
-0.655459
-0.654313
-0.65328
-0.652417
-0.651707
-0.651074
-0.650458
-0.649859
-0.649308
-0.648765
-0.648131
-0.647366
-0.64652
-0.645651
-0.644769
-0.643843
-0.642849
-0.641817
-0.640823
-0.63995
-0.639214
-0.638571
-0.63803
-0.63766
-0.637467
-0.637379
-0.637337
-0.637317
-0.637321
-0.637351
-0.637389
-0.637392
-0.637319
-0.637179
-0.637048
-0.637004
-0.637053
-0.637178
-0.63744
-0.637903
-0.638556
-0.639332
-0.640131
-0.640832
-0.641443
-0.642201
-0.0091581
-0.0581842
-0.0959743
-0.131262
-0.164918
-0.196428
-0.227125
-0.257823
-0.288765
-0.319636
-0.3504
-0.381049
-0.411361
-0.440849
-0.468941
-0.495571
-0.520575
-0.543922
-0.565342
-0.58493
-0.602426
-0.618222
-0.632479
-0.644936
-0.655363
-0.664077
-0.671333
-0.677366
-0.682413
-0.686219
-0.689258
-0.69141
-0.692818
-0.693574
-0.693896
-0.693562
-0.692854
-0.691849
-0.69082
-0.689636
-0.688579
-0.687493
-0.68631
-0.685248
-0.684252
-0.683323
-0.682603
-0.682135
-0.681852
-0.681732
-0.681826
-0.682088
-0.682415
-0.682783
-0.683168
-0.683562
-0.684021
-0.68455
-0.685075
-0.685568
-0.686012
-0.686327
-0.686465
-0.686482
-0.686418
-0.686227
-0.685916
-0.685582
-0.685294
-0.685046
-0.684818
-0.684635
-0.684488
-0.684277
-0.68395
-0.683596
-0.683301
-0.683014
-0.682679
-0.682331
-0.681992
-0.6816
-0.681084
-0.68046
-0.679779
-0.679002
-0.678072
-0.677048
-0.676043
-0.675097
-0.67418
-0.673269
-0.672384
-0.671563
-0.670802
-0.670072
-0.669402
-0.668842
-0.668378
-0.667943
-0.667493
-0.667037
-0.666618
-0.666209
-0.665696
-0.665002
-0.664166
-0.663235
-0.6622
-0.661049
-0.659807
-0.658533
-0.657287
-0.656071
-0.654851
-0.653672
-0.652649
-0.651811
-0.65108
-0.650394
-0.649753
-0.649173
-0.648646
-0.648109
-0.647466
-0.646696
-0.64587
-0.645038
-0.644177
-0.643246
-0.642247
-0.641237
-0.640279
-0.639409
-0.638637
-0.637954
-0.637393
-0.637021
-0.636823
-0.636707
-0.636619
-0.636564
-0.636554
-0.636575
-0.636586
-0.636544
-0.636443
-0.636325
-0.636245
-0.636235
-0.636293
-0.636427
-0.636731
-0.637289
-0.638062
-0.638943
-0.639829
-0.640629
-0.641353
-0.642206
-0.0350442
-0.0864341
-0.126602
-0.163519
-0.197714
-0.228542
-0.25766
-0.286032
-0.314288
-0.342173
-0.36976
-0.396949
-0.423822
-0.450257
-0.475634
-0.499784
-0.522417
-0.543615
-0.563083
-0.580832
-0.596937
-0.611523
-0.62479
-0.636594
-0.646824
-0.655384
-0.662537
-0.668649
-0.673685
-0.67777
-0.6811
-0.683831
-0.685725
-0.687033
-0.687773
-0.688035
-0.68783
-0.687337
-0.68675
-0.686067
-0.685456
-0.684751
-0.683989
-0.683249
-0.682476
-0.681744
-0.681184
-0.680856
-0.680739
-0.680764
-0.680891
-0.681122
-0.681448
-0.681834
-0.682233
-0.682647
-0.683086
-0.683504
-0.683892
-0.684325
-0.684776
-0.685098
-0.685263
-0.68532
-0.685229
-0.684965
-0.684649
-0.684404
-0.684212
-0.684029
-0.683873
-0.683752
-0.683616
-0.683412
-0.683161
-0.682923
-0.682704
-0.682455
-0.682176
-0.681915
-0.681647
-0.681283
-0.680808
-0.680265
-0.679639
-0.67887
-0.677952
-0.676973
-0.676024
-0.675098
-0.674163
-0.673252
-0.672395
-0.671575
-0.670781
-0.670019
-0.669334
-0.668771
-0.668279
-0.66777
-0.667254
-0.666783
-0.666343
-0.665875
-0.665305
-0.664587
-0.663746
-0.662811
-0.66175
-0.660558
-0.659304
-0.658055
-0.656811
-0.65555
-0.654287
-0.653105
-0.652093
-0.651249
-0.650488
-0.649765
-0.649111
-0.648547
-0.64803
-0.647471
-0.646802
-0.646041
-0.645254
-0.64445
-0.643586
-0.642643
-0.641653
-0.640671
-0.639741
-0.63887
-0.638066
-0.637357
-0.6368
-0.636444
-0.636246
-0.636104
-0.635987
-0.63593
-0.635935
-0.635953
-0.635936
-0.635867
-0.635766
-0.63569
-0.635668
-0.635687
-0.635739
-0.635873
-0.636212
-0.636851
-0.637722
-0.638668
-0.639596
-0.64046
-0.641279
-0.642204
-0.0708372
-0.120752
-0.160384
-0.196568
-0.229757
-0.259101
-0.286034
-0.311874
-0.337336
-0.362605
-0.387342
-0.411713
-0.435757
-0.459349
-0.482397
-0.504426
-0.525269
-0.544672
-0.562701
-0.579095
-0.593952
-0.607414
-0.619749
-0.630994
-0.640792
-0.649233
-0.656354
-0.662376
-0.667352
-0.671654
-0.675152
-0.678054
-0.680389
-0.68211
-0.683232
-0.68391
-0.684036
-0.683965
-0.68369
-0.683422
-0.683056
-0.682662
-0.682258
-0.681731
-0.681201
-0.680702
-0.680251
-0.679994
-0.679973
-0.680085
-0.680266
-0.680526
-0.680831
-0.681143
-0.681504
-0.681944
-0.682389
-0.682772
-0.683125
-0.683494
-0.683851
-0.684121
-0.684304
-0.684404
-0.684337
-0.684091
-0.683805
-0.683576
-0.683386
-0.683247
-0.683182
-0.683118
-0.682981
-0.68279
-0.682604
-0.682436
-0.682249
-0.682037
-0.681829
-0.681627
-0.681379
-0.681035
-0.680611
-0.680135
-0.679539
-0.678761
-0.677864
-0.676944
-0.676034
-0.675114
-0.674177
-0.673278
-0.672443
-0.671614
-0.670778
-0.670002
-0.669336
-0.668759
-0.668208
-0.667643
-0.667098
-0.666613
-0.666147
-0.66562
-0.664988
-0.664255
-0.663423
-0.662464
-0.661358
-0.660143
-0.658895
-0.657646
-0.656378
-0.655076
-0.653788
-0.65261
-0.651604
-0.650731
-0.649919
-0.649169
-0.648525
-0.647977
-0.647447
-0.646855
-0.646167
-0.645422
-0.64467
-0.643886
-0.643014
-0.642065
-0.641097
-0.640148
-0.639231
-0.638344
-0.637515
-0.636809
-0.636281
-0.635947
-0.635746
-0.635593
-0.635477
-0.635442
-0.635473
-0.635492
-0.635455
-0.635375
-0.635297
-0.635267
-0.63529
-0.635321
-0.635362
-0.635498
-0.635871
-0.636567
-0.637498
-0.638482
-0.639426
-0.640325
-0.641213
-0.642191
-0.114356
-0.160051
-0.197079
-0.230946
-0.261777
-0.288826
-0.313349
-0.336438
-0.358965
-0.381496
-0.403758
-0.425722
-0.447361
-0.468738
-0.48946
-0.509585
-0.528847
-0.546865
-0.563555
-0.578962
-0.592912
-0.605476
-0.61702
-0.62759
-0.637075
-0.645227
-0.652217
-0.658156
-0.663275
-0.667486
-0.671085
-0.674182
-0.676661
-0.678559
-0.680066
-0.680982
-0.681417
-0.68164
-0.681618
-0.681567
-0.681472
-0.681304
-0.681037
-0.680707
-0.680377
-0.680026
-0.67973
-0.679587
-0.679588
-0.679703
-0.679927
-0.680232
-0.680533
-0.680802
-0.681123
-0.681514
-0.681892
-0.682244
-0.682617
-0.682975
-0.683267
-0.683499
-0.683672
-0.683742
-0.683664
-0.683479
-0.683267
-0.683056
-0.68286
-0.682746
-0.682723
-0.682673
-0.682537
-0.682383
-0.682251
-0.682108
-0.681934
-0.681763
-0.681617
-0.681443
-0.681186
-0.680861
-0.680494
-0.680053
-0.679457
-0.678686
-0.67783
-0.676963
-0.676068
-0.675138
-0.674223
-0.673361
-0.672519
-0.671657
-0.670803
-0.670033
-0.669375
-0.668773
-0.668161
-0.667552
-0.667005
-0.666511
-0.665997
-0.665414
-0.664754
-0.664008
-0.663153
-0.662155
-0.661012
-0.659792
-0.658556
-0.657296
-0.655983
-0.654642
-0.653349
-0.652184
-0.651166
-0.650246
-0.649385
-0.648619
-0.647987
-0.647443
-0.646886
-0.646262
-0.645579
-0.644868
-0.644137
-0.643351
-0.642471
-0.641536
-0.640602
-0.639678
-0.638757
-0.637852
-0.637017
-0.636334
-0.63585
-0.635539
-0.635331
-0.635176
-0.635088
-0.635098
-0.635158
-0.635173
-0.63512
-0.635056
-0.635026
-0.635037
-0.63507
-0.635092
-0.63513
-0.635286
-0.635688
-0.636401
-0.63735
-0.638356
-0.639318
-0.640243
-0.641172
-0.64217
-0.163193
-0.202849
-0.235761
-0.266266
-0.294059
-0.318304
-0.340107
-0.360394
-0.380113
-0.399831
-0.419691
-0.439425
-0.459095
-0.478512
-0.497404
-0.515677
-0.533282
-0.549888
-0.565518
-0.579951
-0.593096
-0.604984
-0.615839
-0.625751
-0.634816
-0.642751
-0.64957
-0.655395
-0.660432
-0.66472
-0.668444
-0.671606
-0.674187
-0.676237
-0.677866
-0.678956
-0.679688
-0.680046
-0.680297
-0.680382
-0.680479
-0.680517
-0.680351
-0.680154
-0.679924
-0.679657
-0.679496
-0.679468
-0.679507
-0.67962
-0.67984
-0.680128
-0.680415
-0.680694
-0.681008
-0.681333
-0.681634
-0.681944
-0.68228
-0.682597
-0.682882
-0.683139
-0.683307
-0.683329
-0.683236
-0.683087
-0.682911
-0.682715
-0.682554
-0.68248
-0.682453
-0.682379
-0.682256
-0.682148
-0.682043
-0.681895
-0.68174
-0.68162
-0.681501
-0.68132
-0.681064
-0.680772
-0.680439
-0.679995
-0.679386
-0.678648
-0.677846
-0.677002
-0.676107
-0.675187
-0.674299
-0.673456
-0.672595
-0.671693
-0.670835
-0.67009
-0.669422
-0.668768
-0.668113
-0.667494
-0.666943
-0.666421
-0.665856
-0.665235
-0.664566
-0.663811
-0.662914
-0.661859
-0.66069
-0.65948
-0.658253
-0.656966
-0.655605
-0.654239
-0.65296
-0.651805
-0.650755
-0.649779
-0.648891
-0.648132
-0.647503
-0.646936
-0.646348
-0.645712
-0.645052
-0.644375
-0.643658
-0.642864
-0.641982
-0.641066
-0.640166
-0.639257
-0.638318
-0.637398
-0.636583
-0.635949
-0.635506
-0.635201
-0.63498
-0.634837
-0.634796
-0.634854
-0.634931
-0.634939
-0.634886
-0.634856
-0.634886
-0.634935
-0.634961
-0.634962
-0.635007
-0.635209
-0.635648
-0.636346
-0.637255
-0.638254
-0.639249
-0.640212
-0.641164
-0.642155
-0.215207
-0.247754
-0.275593
-0.302005
-0.326288
-0.347405
-0.366516
-0.384163
-0.401199
-0.418297
-0.435631
-0.453289
-0.471134
-0.488731
-0.506057
-0.522675
-0.538738
-0.553979
-0.568253
-0.581791
-0.59426
-0.605465
-0.6156
-0.6251
-0.633615
-0.64124
-0.64788
-0.653544
-0.658471
-0.662806
-0.666532
-0.669775
-0.672521
-0.674671
-0.676302
-0.677565
-0.678413
-0.678949
-0.679394
-0.679628
-0.679826
-0.680008
-0.680034
-0.679936
-0.679759
-0.679578
-0.679486
-0.679506
-0.679596
-0.679731
-0.679933
-0.680184
-0.680439
-0.680704
-0.680999
-0.681288
-0.681556
-0.681827
-0.682095
-0.682357
-0.682636
-0.682902
-0.683059
-0.683083
-0.683019
-0.68288
-0.682688
-0.682506
-0.682396
-0.682348
-0.682292
-0.6822
-0.682107
-0.682028
-0.681922
-0.681778
-0.681655
-0.681569
-0.681444
-0.68124
-0.681001
-0.680746
-0.680418
-0.679955
-0.679346
-0.678644
-0.677884
-0.677046
-0.676144
-0.67525
-0.674396
-0.673541
-0.672637
-0.671716
-0.670871
-0.670132
-0.669434
-0.668731
-0.668053
-0.66744
-0.666882
-0.666317
-0.665704
-0.665062
-0.664391
-0.663613
-0.662662
-0.66156
-0.660386
-0.659191
-0.657952
-0.656623
-0.655231
-0.653869
-0.652604
-0.651438
-0.650349
-0.649337
-0.648442
-0.647696
-0.647066
-0.64647
-0.645852
-0.645218
-0.644592
-0.643946
-0.643226
-0.64242
-0.641554
-0.640672
-0.639792
-0.638873
-0.637912
-0.636998
-0.636226
-0.635639
-0.635218
-0.634907
-0.634677
-0.634552
-0.634557
-0.634651
-0.634736
-0.634743
-0.634706
-0.634721
-0.634809
-0.634893
-0.634914
-0.634903
-0.634973
-0.635239
-0.635724
-0.636397
-0.637232
-0.638194
-0.639216
-0.640223
-0.641189
-0.642155
-0.268934
-0.293855
-0.316075
-0.337846
-0.358306
-0.376265
-0.392425
-0.407559
-0.422283
-0.436958
-0.452044
-0.467477
-0.483342
-0.499442
-0.515089
-0.530443
-0.545032
-0.558935
-0.571999
-0.584488
-0.596147
-0.606825
-0.61645
-0.62521
-0.633328
-0.640642
-0.64698
-0.6525
-0.657302
-0.661507
-0.665218
-0.668521
-0.671307
-0.673554
-0.675301
-0.676622
-0.677471
-0.678233
-0.678761
-0.679147
-0.679461
-0.679695
-0.679863
-0.679886
-0.679811
-0.679729
-0.679676
-0.679706
-0.679822
-0.679975
-0.680152
-0.680368
-0.680611
-0.680852
-0.681092
-0.681337
-0.681587
-0.681828
-0.682046
-0.682279
-0.682547
-0.682783
-0.682914
-0.682956
-0.682928
-0.682794
-0.68259
-0.682434
-0.682354
-0.682294
-0.682212
-0.682121
-0.682049
-0.681971
-0.681855
-0.681738
-0.681659
-0.681577
-0.681422
-0.681207
-0.68099
-0.680752
-0.680405
-0.679924
-0.679343
-0.678679
-0.677923
-0.677078
-0.676195
-0.675335
-0.674487
-0.673599
-0.672658
-0.671733
-0.6709
-0.670146
-0.669404
-0.668665
-0.667985
-0.667379
-0.666799
-0.666188
-0.665548
-0.664906
-0.664219
-0.66339
-0.662387
-0.661266
-0.6601
-0.658905
-0.657638
-0.656274
-0.654868
-0.653521
-0.652269
-0.651083
-0.649952
-0.648921
-0.648042
-0.647313
-0.646664
-0.646033
-0.645408
-0.644804
-0.644207
-0.643564
-0.642831
-0.642026
-0.641192
-0.640343
-0.639466
-0.638529
-0.63756
-0.636671
-0.635952
-0.635404
-0.634982
-0.63465
-0.634413
-0.634312
-0.634355
-0.634468
-0.634549
-0.634566
-0.634573
-0.634644
-0.634772
-0.634873
-0.634901
-0.634913
-0.635034
-0.63536
-0.635881
-0.636531
-0.637299
-0.638215
-0.639253
-0.640294
-0.641255
-0.642178
-0.322793
-0.340323
-0.356775
-0.37366
-0.390049
-0.404698
-0.418072
-0.430723
-0.443182
-0.455841
-0.468769
-0.482231
-0.496243
-0.51046
-0.524671
-0.538636
-0.552025
-0.564651
-0.576608
-0.587888
-0.598738
-0.608785
-0.617894
-0.626167
-0.633809
-0.640665
-0.646753
-0.652112
-0.656741
-0.660838
-0.664501
-0.667727
-0.670505
-0.67282
-0.674698
-0.67603
-0.676951
-0.677764
-0.678404
-0.678916
-0.679316
-0.679626
-0.679851
-0.67996
-0.680003
-0.680004
-0.680005
-0.680074
-0.680198
-0.680329
-0.680476
-0.680679
-0.680919
-0.681129
-0.681315
-0.681527
-0.68174
-0.681916
-0.682095
-0.682333
-0.682596
-0.682794
-0.682907
-0.682957
-0.682929
-0.682789
-0.682598
-0.682466
-0.682389
-0.682297
-0.682203
-0.682129
-0.682052
-0.681952
-0.681841
-0.681759
-0.681703
-0.681602
-0.681426
-0.681224
-0.681022
-0.680763
-0.680392
-0.67992
-0.679369
-0.67872
-0.677958
-0.677115
-0.676262
-0.675428
-0.674564
-0.67363
-0.672667
-0.671756
-0.670925
-0.670131
-0.669344
-0.668599
-0.667926
-0.667299
-0.666676
-0.66604
-0.665399
-0.664753
-0.664034
-0.663152
-0.662107
-0.660982
-0.65983
-0.658622
-0.657313
-0.655917
-0.654523
-0.6532
-0.651942
-0.650721
-0.64957
-0.648553
-0.647696
-0.64696
-0.646281
-0.645629
-0.645021
-0.644452
-0.643871
-0.643221
-0.642479
-0.641686
-0.640888
-0.640067
-0.639181
-0.638225
-0.637268
-0.636429
-0.635768
-0.63524
-0.634793
-0.634432
-0.634198
-0.634123
-0.634183
-0.634293
-0.634371
-0.634422
-0.634499
-0.63463
-0.634777
-0.634874
-0.634919
-0.634992
-0.635193
-0.635574
-0.636106
-0.63673
-0.637455
-0.638344
-0.63939
-0.640439
-0.641372
-0.64224
-0.37544
-0.385915
-0.396893
-0.409123
-0.421407
-0.432719
-0.4434
-0.453659
-0.46407
-0.474857
-0.485831
-0.497471
-0.509589
-0.522048
-0.534742
-0.54719
-0.559496
-0.57096
-0.581677
-0.591928
-0.601787
-0.611098
-0.619673
-0.627533
-0.63468
-0.641168
-0.646979
-0.652057
-0.656565
-0.660592
-0.664132
-0.667256
-0.670018
-0.672347
-0.67426
-0.675666
-0.676738
-0.677492
-0.678239
-0.678858
-0.679309
-0.679722
-0.680009
-0.680179
-0.680297
-0.680364
-0.680424
-0.680522
-0.680646
-0.680765
-0.680894
-0.681072
-0.681285
-0.681476
-0.681647
-0.68183
-0.681987
-0.682101
-0.682247
-0.682468
-0.682703
-0.682882
-0.683009
-0.683064
-0.683
-0.682848
-0.68269
-0.682566
-0.682454
-0.682335
-0.682243
-0.682178
-0.682083
-0.681963
-0.681879
-0.681829
-0.681757
-0.681626
-0.681451
-0.681266
-0.681061
-0.680774
-0.680387
-0.679937
-0.679412
-0.678755
-0.677976
-0.677158
-0.676348
-0.675511
-0.674601
-0.673638
-0.672683
-0.671777
-0.670919
-0.670087
-0.669282
-0.668538
-0.667861
-0.6672
-0.66653
-0.665873
-0.665243
-0.664591
-0.663822
-0.662884
-0.661827
-0.660721
-0.659568
-0.658322
-0.656974
-0.655577
-0.654201
-0.652882
-0.651602
-0.650358
-0.649209
-0.64822
-0.647379
-0.646627
-0.645917
-0.645258
-0.644677
-0.64414
-0.643561
-0.642894
-0.642156
-0.641397
-0.640638
-0.639829
-0.638923
-0.63796
-0.637043
-0.636267
-0.635646
-0.635114
-0.634637
-0.634258
-0.634036
-0.633977
-0.634031
-0.634125
-0.634215
-0.634324
-0.634487
-0.634678
-0.634832
-0.634913
-0.634977
-0.635129
-0.635427
-0.635857
-0.636383
-0.63699
-0.637712
-0.638602
-0.639641
-0.640665
-0.641547
-0.642359
-0.425864
-0.429963
-0.435735
-0.443399
-0.452045
-0.460258
-0.468193
-0.476325
-0.484753
-0.493632
-0.503056
-0.512817
-0.523183
-0.534002
-0.544915
-0.556106
-0.567072
-0.577547
-0.58732
-0.596477
-0.605253
-0.613787
-0.62177
-0.629073
-0.635826
-0.641978
-0.647444
-0.652287
-0.656631
-0.660505
-0.663986
-0.66707
-0.669718
-0.672012
-0.673936
-0.67546
-0.676587
-0.677404
-0.678194
-0.678883
-0.679422
-0.679873
-0.680228
-0.680503
-0.68068
-0.68078
-0.680885
-0.68101
-0.681128
-0.681232
-0.681353
-0.681519
-0.681694
-0.681854
-0.682013
-0.682167
-0.682275
-0.682362
-0.682489
-0.682661
-0.682849
-0.683026
-0.683161
-0.683198
-0.683109
-0.682964
-0.682833
-0.682694
-0.682539
-0.682412
-0.682324
-0.682232
-0.682112
-0.682002
-0.68195
-0.681911
-0.681811
-0.681654
-0.681494
-0.68132
-0.681081
-0.680764
-0.680396
-0.679971
-0.679432
-0.678755
-0.677991
-0.677208
-0.676412
-0.675556
-0.67461
-0.673632
-0.672687
-0.671781
-0.670888
-0.670017
-0.66921
-0.668478
-0.667773
-0.667057
-0.666357
-0.665708
-0.66508
-0.66439
-0.663567
-0.662603
-0.661554
-0.660457
-0.659286
-0.658003
-0.656635
-0.655249
-0.653889
-0.652559
-0.651249
-0.649994
-0.648868
-0.647908
-0.647066
-0.646284
-0.645558
-0.644918
-0.644368
-0.64384
-0.643244
-0.642566
-0.641855
-0.641143
-0.640413
-0.639603
-0.638687
-0.63774
-0.636879
-0.636159
-0.635555
-0.635004
-0.634503
-0.634123
-0.633921
-0.633873
-0.633909
-0.633983
-0.634099
-0.634287
-0.634541
-0.634784
-0.634937
-0.635007
-0.635102
-0.635333
-0.635713
-0.636172
-0.636685
-0.637301
-0.638066
-0.638987
-0.640009
-0.640979
-0.641801
-0.642569
-0.473627
-0.471825
-0.472836
-0.476347
-0.481413
-0.486796
-0.49237
-0.498244
-0.504885
-0.512151
-0.519808
-0.528083
-0.536926
-0.545958
-0.55534
-0.565091
-0.574788
-0.584282
-0.593142
-0.601379
-0.60932
-0.616976
-0.624261
-0.631028
-0.637345
-0.643106
-0.64823
-0.652846
-0.656977
-0.660682
-0.664096
-0.667145
-0.669721
-0.671955
-0.673853
-0.675423
-0.676536
-0.67751
-0.678327
-0.679026
-0.679654
-0.680144
-0.68056
-0.680901
-0.681124
-0.681283
-0.68143
-0.68155
-0.681644
-0.681748
-0.681879
-0.682026
-0.682169
-0.68231
-0.682445
-0.682539
-0.682598
-0.682672
-0.682784
-0.682915
-0.683068
-0.68324
-0.683358
-0.683357
-0.683261
-0.683129
-0.682988
-0.682825
-0.682656
-0.682528
-0.682425
-0.682294
-0.682154
-0.682072
-0.682035
-0.681969
-0.681848
-0.681701
-0.681544
-0.681346
-0.681081
-0.68076
-0.680405
-0.679988
-0.679432
-0.678736
-0.677992
-0.677249
-0.676453
-0.675553
-0.674588
-0.673628
-0.672691
-0.671755
-0.670829
-0.669955
-0.669154
-0.6684
-0.667644
-0.666883
-0.666171
-0.665527
-0.664884
-0.664148
-0.663284
-0.662318
-0.661288
-0.660189
-0.658983
-0.65767
-0.656304
-0.654937
-0.653576
-0.652217
-0.650887
-0.649646
-0.648549
-0.647597
-0.646732
-0.645922
-0.6452
-0.644595
-0.644069
-0.643535
-0.642922
-0.64225
-0.641582
-0.640919
-0.640204
-0.639386
-0.638476
-0.637571
-0.636776
-0.636099
-0.635488
-0.634913
-0.63441
-0.634052
-0.63387
-0.633817
-0.633832
-0.633907
-0.634074
-0.634343
-0.634666
-0.63494
-0.635101
-0.635186
-0.63532
-0.635608
-0.636035
-0.636508
-0.637016
-0.637659
-0.638498
-0.639473
-0.640481
-0.641393
-0.642165
-0.642915
-0.518167
-0.511224
-0.507787
-0.507369
-0.509283
-0.512176
-0.515551
-0.519497
-0.524323
-0.52995
-0.536293
-0.543106
-0.550395
-0.558157
-0.56609
-0.5742
-0.582695
-0.591083
-0.599052
-0.606587
-0.613701
-0.620578
-0.627229
-0.633492
-0.639295
-0.644653
-0.649488
-0.653809
-0.657672
-0.661204
-0.664496
-0.667484
-0.670067
-0.672239
-0.674105
-0.675641
-0.676816
-0.677805
-0.678642
-0.679405
-0.680069
-0.680594
-0.681053
-0.681433
-0.681706
-0.68191
-0.682073
-0.682188
-0.682265
-0.682354
-0.68247
-0.682598
-0.682737
-0.682877
-0.682971
-0.682996
-0.683011
-0.683058
-0.68312
-0.683217
-0.683369
-0.683523
-0.683602
-0.683572
-0.683476
-0.683346
-0.683169
-0.682973
-0.68281
-0.682674
-0.682527
-0.682369
-0.682238
-0.682164
-0.682114
-0.682021
-0.681883
-0.681743
-0.681583
-0.681346
-0.681054
-0.680756
-0.680424
-0.67998
-0.679394
-0.678716
-0.67801
-0.677269
-0.676441
-0.675524
-0.674569
-0.673622
-0.672672
-0.671706
-0.670767
-0.669904
-0.669101
-0.668302
-0.667483
-0.666691
-0.66598
-0.665328
-0.664644
-0.663861
-0.662982
-0.662035
-0.66102
-0.659904
-0.658667
-0.657344
-0.655996
-0.65464
-0.653259
-0.651864
-0.650525
-0.649314
-0.648243
-0.647276
-0.646372
-0.645543
-0.644844
-0.644278
-0.643763
-0.64321
-0.642595
-0.641962
-0.641353
-0.640729
-0.640013
-0.639189
-0.63831
-0.637469
-0.636728
-0.636068
-0.635442
-0.634863
-0.634393
-0.634076
-0.633903
-0.633826
-0.633825
-0.633929
-0.634166
-0.634506
-0.634865
-0.635155
-0.635341
-0.635473
-0.635651
-0.635958
-0.636388
-0.636865
-0.63739
-0.638084
-0.639003
-0.640039
-0.641042
-0.641913
-0.642666
-0.643433
-0.558905
-0.547585
-0.540411
-0.5365
-0.535389
-0.536007
-0.537588
-0.539915
-0.543078
-0.547181
-0.552052
-0.557628
-0.563785
-0.570188
-0.576844
-0.583746
-0.590899
-0.598092
-0.605168
-0.611906
-0.618267
-0.624538
-0.630563
-0.636252
-0.641601
-0.646585
-0.651096
-0.655106
-0.658727
-0.662062
-0.665181
-0.668059
-0.670605
-0.672767
-0.674636
-0.676102
-0.67735
-0.678322
-0.679179
-0.679974
-0.680631
-0.68121
-0.681704
-0.682092
-0.682404
-0.682638
-0.682804
-0.682921
-0.682993
-0.683054
-0.683132
-0.683238
-0.683375
-0.683494
-0.683546
-0.683536
-0.683519
-0.683513
-0.683511
-0.68358
-0.683734
-0.683854
-0.683878
-0.683843
-0.683752
-0.683593
-0.683386
-0.683177
-0.683006
-0.682844
-0.682647
-0.682463
-0.68235
-0.682274
-0.682177
-0.68206
-0.681937
-0.681787
-0.681578
-0.681312
-0.681032
-0.680749
-0.680403
-0.679932
-0.67934
-0.678689
-0.678006
-0.67725
-0.676394
-0.675476
-0.674544
-0.6736
-0.672624
-0.671637
-0.670703
-0.669847
-0.669018
-0.668158
-0.667287
-0.666478
-0.665767
-0.66509
-0.664354
-0.663535
-0.662665
-0.661746
-0.660732
-0.659587
-0.658335
-0.657034
-0.655714
-0.654351
-0.65293
-0.65151
-0.650184
-0.649
-0.647926
-0.646919
-0.645984
-0.645163
-0.644496
-0.643952
-0.643428
-0.642862
-0.642273
-0.641701
-0.641147
-0.640547
-0.639831
-0.63902
-0.638194
-0.637419
-0.636713
-0.636047
-0.635411
-0.634856
-0.634449
-0.634189
-0.634023
-0.633915
-0.633901
-0.634048
-0.634362
-0.634757
-0.635127
-0.635421
-0.635656
-0.635874
-0.636111
-0.636407
-0.636793
-0.637259
-0.637826
-0.638592
-0.639588
-0.640674
-0.641683
-0.642547
-0.643324
-0.644148
-0.595492
-0.580869
-0.570468
-0.563515
-0.559747
-0.558328
-0.558203
-0.559154
-0.560894
-0.563637
-0.567175
-0.571474
-0.576452
-0.581848
-0.587521
-0.593317
-0.599273
-0.605379
-0.611513
-0.617425
-0.623138
-0.628718
-0.634143
-0.639331
-0.644241
-0.648779
-0.652916
-0.656707
-0.660152
-0.663238
-0.666151
-0.668943
-0.671406
-0.673507
-0.675314
-0.676814
-0.678053
-0.679044
-0.679918
-0.680697
-0.681374
-0.681974
-0.68247
-0.682884
-0.68322
-0.683447
-0.6836
-0.683722
-0.683797
-0.683832
-0.683878
-0.683969
-0.684083
-0.684149
-0.684151
-0.684124
-0.684069
-0.684
-0.683966
-0.684018
-0.684141
-0.684219
-0.684209
-0.684165
-0.684064
-0.68386
-0.683628
-0.683434
-0.683243
-0.683021
-0.682796
-0.682614
-0.682483
-0.682368
-0.68224
-0.682113
-0.681982
-0.6818
-0.681547
-0.681266
-0.681004
-0.680726
-0.680353
-0.679857
-0.679276
-0.678649
-0.677964
-0.677182
-0.676314
-0.675415
-0.674502
-0.673544
-0.672538
-0.671547
-0.670634
-0.669772
-0.668883
-0.667955
-0.667056
-0.666248
-0.665514
-0.664782
-0.664002
-0.663184
-0.662341
-0.661431
-0.6604
-0.659244
-0.65801
-0.656743
-0.655435
-0.65405
-0.652602
-0.651179
-0.649872
-0.648693
-0.647588
-0.646534
-0.64558
-0.644785
-0.64415
-0.643613
-0.643076
-0.642513
-0.641973
-0.641471
-0.640957
-0.64036
-0.63965
-0.63888
-0.638126
-0.637411
-0.636715
-0.636034
-0.635404
-0.634902
-0.634568
-0.634359
-0.6342
-0.634078
-0.634068
-0.634254
-0.63462
-0.635048
-0.635424
-0.635736
-0.63604
-0.636366
-0.636679
-0.636964
-0.637289
-0.637735
-0.638354
-0.639195
-0.640247
-0.641366
-0.642399
-0.643302
-0.64415
-0.645073
-0.627845
-0.610718
-0.597975
-0.58848
-0.582217
-0.578886
-0.57744
-0.577131
-0.577826
-0.579211
-0.581544
-0.58474
-0.588483
-0.592932
-0.597692
-0.602601
-0.607667
-0.612832
-0.618006
-0.623126
-0.628207
-0.633152
-0.638043
-0.642715
-0.647129
-0.651275
-0.655065
-0.658562
-0.66179
-0.664736
-0.667508
-0.670141
-0.67249
-0.674538
-0.676261
-0.677777
-0.678944
-0.679967
-0.680867
-0.681619
-0.682309
-0.682897
-0.683391
-0.683841
-0.684178
-0.684381
-0.684517
-0.684624
-0.684672
-0.684676
-0.684711
-0.684796
-0.684867
-0.684875
-0.684833
-0.684764
-0.684649
-0.684524
-0.684476
-0.684514
-0.684577
-0.684616
-0.684608
-0.684541
-0.68439
-0.684165
-0.683928
-0.683717
-0.683488
-0.683221
-0.682977
-0.682792
-0.682631
-0.682467
-0.682316
-0.682187
-0.682026
-0.681786
-0.681498
-0.681226