/*--------------------------------*- C++ -*----------------------------------*\
  =========                 |
  \\      /  F ield         | OpenFOAM: The Open Source CFD Toolbox
   \\    /   O peration     | Website:  https://openfoam.org
    \\  /    A nd           | Version:  7
     \\/     M anipulation  |
\*---------------------------------------------------------------------------*/
FoamFile
{
    version     2.0;
    format      ascii;
    class       volScalarField;
    location    "0.3";
    object      p;
}
// * * * * * * * * * * * * * * * * * * * * * * * * * * * * * * * * * * * * * //

dimensions      [0 2 -2 0 0 0 0];

internalField   nonuniform List<scalar> 
12800
(
2.83246e-06
3.24213e-05
-3.11876e-07
-0.000106541
-0.000278336
-0.000505591
-0.00077758
-0.00108381
-0.00141478
-0.00176215
-0.00211877
-0.00247851
-0.00283629
-0.00318788
-0.00352986
-0.00385941
-0.00417433
-0.00447297
-0.00475408
-0.00501679
-0.00526051
-0.00548492
-0.00568995
-0.00587566
-0.00604227
-0.00619009
-0.0063195
-0.00643095
-0.00652491
-0.00660186
-0.00666227
-0.00670661
-0.00673532
-0.0067488
-0.00674742
-0.00673151
-0.00670133
-0.00665709
-0.00659896
-0.00652706
-0.00644147
-0.00634218
-0.00622914
-0.00610224
-0.00596132
-0.0058062
-0.00563662
-0.00545229
-0.00525284
-0.00503787
-0.00480692
-0.00455948
-0.00429502
-0.00401294
-0.0037126
-0.00339332
-0.00305434
-0.00269489
-0.00231412
-0.00191115
-0.00148504
-0.00103482
-0.000559457
-5.78752e-05
0.000471061
0.00102854
0.00161581
0.00223417
0.00288496
0.00356959
0.00428951
0.00504621
0.00584125
0.00667621
0.00755273
0.00847251
0.00943726
0.0104487
0.0115087
0.0126191
0.0137815
0.014998
0.0162703
0.0176002
0.0189897
0.0204403
0.021954
0.0235324
0.0251771
0.0268898
0.0286717
0.0305244
0.0324489
0.0344463
0.0365174
0.0386628
0.0408831
0.0431783
0.0455482
0.0479925
0.0505104
0.0531007
0.0557619
0.0584919
0.0612884
0.0641485
0.0670687
0.0700452
0.0730734
0.0761483
0.0792644
0.0824155
0.0855948
0.0887949
0.0920081
0.0952258
0.0984391
0.101638
0.104814
0.107956
0.111052
0.114093
0.117068
0.119964
0.12277
0.125477
0.128072
0.130544
0.132885
0.135083
0.13713
0.139018
0.14074
0.142289
0.14366
0.14485
0.145856
0.146677
0.147313
0.147767
0.148042
0.148145
0.148081
0.147859
0.147491
0.146988
0.146364
0.145635
0.14482
0.143936
0.143007
0.142057
0.141111
0.1402
0.139358
0.13862
0.138025
0.137615
0.13743
0.137456
-2.10761e-05
6.79091e-06
-2.78877e-05
-0.000125447
-0.000276885
-0.000475329
-0.0007131
-0.000982103
-0.00127461
-0.00158357
-0.00190276
-0.00222668
-0.00255065
-0.00287072
-0.00318357
-0.00348647
-0.00377722
-0.00405408
-0.00431571
-0.0045611
-0.00478956
-0.00500063
-0.00519403
-0.0053697
-0.00552767
-0.00566811
-0.00579126
-0.00589743
-0.00598695
-0.00606017
-0.00611744
-0.00615912
-0.00618555
-0.00619705
-0.0061939
-0.00617635
-0.00614459
-0.00609878
-0.00603904
-0.00596544
-0.00587801
-0.00577671
-0.00566146
-0.00553212
-0.00538853
-0.00523046
-0.00505765
-0.0048698
-0.00466653
-0.00444743
-0.00421203
-0.00395985
-0.00369033
-0.00340288
-0.00309688
-0.00277165
-0.00242645
-0.0020605
-0.00167299
-0.00126304
-0.000829749
-0.000372154
0.000110739
0.000619981
0.00115667
0.00172197
0.00231709
0.00294327
0.00360182
0.00429409
0.00502148
0.00578543
0.00658743
0.00742898
0.00831167
0.00923711
0.0102069
0.0112228
0.0122864
0.0133995
0.0145638
0.0157811
0.0170529
0.0183812
0.0197675
0.0212135
0.0227209
0.0242912
0.025926
0.0276266
0.0293943
0.0312304
0.0331359
0.0351117
0.0371585
0.0392768
0.041467
0.0437289
0.0460625
0.0484671
0.0509419
0.0534857
0.0560968
0.0587733
0.0615127
0.064312
0.067168
0.0700767
0.0730338
0.0760343
0.0790729
0.0821434
0.0852395
0.088354
0.0914793
0.0946074
0.0977296
0.100837
0.10392
0.106969
0.109973
0.112923
0.115808
0.118617
0.12134
0.123965
0.126484
0.128886
0.131161
0.133301
0.135296
0.137141
0.138827
0.14035
0.141704
0.142887
0.143896
0.144731
0.145393
0.145883
0.146206
0.146366
0.146372
0.146231
0.145954
0.145552
0.145038
0.144429
0.14374
0.14299
0.1422
0.141391
0.140587
0.139816
0.139104
0.138482
0.137979
0.137625
0.137456
0.137483
1.49204e-05
4.34971e-05
8.16832e-06
-8.48961e-05
-0.000224904
-0.00040603
-0.000622127
-0.000866501
-0.00113263
-0.00141446
-0.00170652
-0.00200391
-0.00230237
-0.00259823
-0.00288836
-0.00317014
-0.00344146
-0.00370058
-0.00394613
-0.00417703
-0.00439254
-0.00459209
-0.00477535
-0.0049421
-0.00509229
-0.00522598
-0.0053433
-0.00544446
-0.00552968
-0.00559922
-0.00565334
-0.0056923
-0.00571639
-0.00572584
-0.00572086
-0.00570164
-0.00566832
-0.00562099
-0.00555975
-0.00548462
-0.0053956
-0.00529261
-0.00517554
-0.00504423
-0.0048985
-0.00473812
-0.00456281
-0.00437224
-0.00416603
-0.00394377
-0.003705
-0.0034492
-0.00317585
-0.00288436
-0.0025741
-0.0022444
-0.00189454
-0.00152375
-0.00113122
-0.000716101
-0.000277503
0.000185507
0.000673902
0.00118871
0.001731
0.00230189
0.00290257
0.00353425
0.00419819
0.00489569
0.00562812
0.00639685
0.00720332
0.00804899
0.00893537
0.00986402
0.0108365
0.0118544
0.0129194
0.014033
0.0151971
0.016413
0.0176827
0.0190075
0.0203892
0.0218294
0.0233295
0.024891
0.0265154
0.0282038
0.0299577
0.031778
0.0336657
0.0356216
0.0376463
0.0397403
0.0419037
0.0441366
0.0464385
0.0488089
0.051247
0.0537513
0.0563203
0.058952
0.0616439
0.0643932
0.0671965
0.07005
0.0729494
0.07589
0.0788664
0.0818728
0.0849029
0.0879497
0.091006
0.094064
0.0971153
0.100151
0.103163
0.106141
0.109075
0.111955
0.114772
0.117516
0.120175
0.122741
0.125203
0.127552
0.129779
0.131876
0.133834
0.135647
0.137308
0.138812
0.140156
0.141335
0.142348
0.143195
0.143876
0.144395
0.144754
0.144959
0.145018
0.144937
0.144728
0.144401
0.143969
0.143447
0.142851
0.142197
0.141505
0.140795
0.140089
0.13941
0.138782
0.138231
0.13778
0.137453
0.137285
0.137298
0.000123933
0.000143133
0.000101898
7.8844e-06
-0.000128088
-0.000300572
-0.000504144
-0.000733002
-0.000981511
-0.00124438
-0.00151677
-0.00179434
-0.00207325
-0.00235012
-0.00262206
-0.00288663
-0.00314183
-0.00338598
-0.00361773
-0.00383603
-0.00404009
-0.00422932
-0.00440332
-0.00456182
-0.0047047
-0.00483194
-0.00494361
-0.00503983
-0.00512075
-0.00518655
-0.00523741
-0.00527355
-0.00529517
-0.00530246
-0.00529556
-0.0052746
-0.00523967
-0.00519084
-0.00512816
-0.00505162
-0.00496117
-0.00485671
-0.0047381
-0.00460517
-0.00445771
-0.00429549
-0.0041182
-0.00392551
-0.00371703
-0.00349233
-0.00325096
-0.00299241
-0.00271615
-0.0024216
-0.00210813
-0.00177508
-0.00142174
-0.00104734
-0.000651093
-0.00023217
0.000210303
0.000677236
0.00116958
0.00168834
0.00223456
0.00280933
0.0034138
0.00404915
0.0047166
0.00541743
0.00615293
0.00692446
0.00773339
0.00858114
0.00946916
0.010399
0.011372
0.0123899
0.0134542
0.0145665
0.0157282
0.0169411
0.0182066
0.0195264
0.0209019
0.0223347
0.0238262
0.0253778
0.0269908
0.0286664
0.0304059
0.0322102
0.0340802
0.0360166
0.0380201
0.0400908
0.0422292
0.0444349
0.0467078
0.0490471
0.0514519
0.053921
0.0564527
0.059045
0.0616956
0.0644016
0.0671596
0.0699661
0.0728168
0.075707
0.0786315
0.0815848
0.0845605
0.0875521
0.0905525
0.0935539
0.0965485
0.0995277
0.102483
0.105405
0.108284
0.111111
0.113875
0.116568
0.11918
0.1217
0.12412
0.12643
0.128622
0.130688
0.132619
0.134409
0.136053
0.137545
0.138881
0.140059
0.141077
0.141935
0.142633
0.143174
0.143562
0.143803
0.143901
0.143867
0.143709
0.143439
0.143068
0.14261
0.142081
0.141496
0.140874
0.140232
0.13959
0.138969
0.138391
0.137877
0.137447
0.137122
0.136931
0.136893
0.000299511
0.000297438
0.000243032
0.000142695
5.32864e-06
-0.000164012
-0.000360473
-0.000579036
-0.000814825
-0.00106324
-0.00132005
-0.00158141
-0.00184391
-0.00210449
-0.00236054
-0.00260983
-0.00285048
-0.00308093
-0.00329989
-0.00350635
-0.00369953
-0.00387882
-0.0040438
-0.00419418
-0.00432978
-0.00445054
-0.00455646
-0.0046476
-0.00472405
-0.00478591
-0.00483334
-0.00486648
-0.00488547
-0.00489044
-0.00488149
-0.00485868
-0.00482208
-0.00477173
-0.00470761
-0.00462969
-0.00453788
-0.00443206
-0.00431207
-0.00417771
-0.00402876
-0.00386495
-0.003686
-0.00349153
-0.00328116
-0.00305446
-0.00281096
-0.00255016
-0.00227154
-0.00197451
-0.00165845
-0.00132271
-0.000966587
-0.00058933
-0.00019016
0.000231736
0.000677206
0.00114714
0.00164247
0.00216417
0.00271326
0.0032908
0.00389791
0.00453574
0.00520546
0.00590832
0.00664556
0.0074185
0.00822846
0.00907682
0.00996498
0.0108944
0.0118665
0.0128827
0.0139447
0.0150539
0.0162117
0.0174198
0.0186796
0.0199926
0.0213602
0.022784
0.0242652
0.0258053
0.0274055
0.0290669
0.0307906
0.0325776
0.0344288
0.0363448
0.0383261
0.0403731
0.0424858
0.0446643
0.046908
0.0492165
0.0515887
0.0540234
0.056519
0.0590735
0.0616846
0.0643496
0.0670651
0.0698276
0.0726331
0.0754769
0.078354
0.0812589
0.0841857
0.0871277
0.0900782
0.0930296
0.0959743
0.098904
0.10181
0.104684
0.107516
0.110297
0.113018
0.115669
0.118241
0.120724
0.12311
0.125389
0.127552
0.129593
0.131503
0.133277
0.134908
0.136392
0.137725
0.138904
0.139928
0.140796
0.14151
0.142071
0.142485
0.142755
0.142889
0.142893
0.142778
0.142554
0.142233
0.141827
0.141352
0.140821
0.140251
0.13966
0.139064
0.138483
0.137935
0.137437
0.137009
0.136668
0.136431
0.13631
0.000533009
0.0005004
0.000426367
0.000314565
0.000170802
-3.55481e-07
-0.000194567
-0.000407503
-0.000634983
-0.000873057
-0.00111806
-0.00136661
-0.00161569
-0.00186262
-0.00210507
-0.00234103
-0.00256877
-0.00278687
-0.00299414
-0.00318965
-0.00337263
-0.00354252
-0.00369886
-0.00384137
-0.00396985
-0.00408421
-0.00418441
-0.00427044
-0.00434236
-0.00440021
-0.00444411
-0.00447416
-0.00449044
-0.00449301
-0.00448194
-0.00445725
-0.00441898
-0.0043671
-0.0043016
-0.00422238
-0.00412933
-0.0040223
-0.0039011
-0.00376553
-0.00361534
-0.00345026
-0.00326997
-0.0030741
-0.00286225
-0.00263398
-0.00238884
-0.00212632
-0.00184589
-0.00154698
-0.00122899
-0.000891245
-0.000533064
-0.000153712
0.000247571
0.000671584
0.00111915
0.00159115
0.00208847
0.00261207
0.00316295
0.00374215
0.00435072
0.0049898
0.00566053
0.0063641
0.00710173
0.00787468
0.00868423
0.00953171
0.0104185
0.0113459
0.0123154
0.0133285
0.0143864
0.0154908
0.0166431
0.0178447
0.019097
0.0204015
0.0217597
0.0231728
0.0246422
0.0261692
0.027755
0.0294007
0.0311074
0.032876
0.0347072
0.0366018
0.0385602
0.0405827
0.0426695
0.0448204
0.0470351
0.049313
0.0516532
0.0540543
0.056515
0.0590332
0.0616068
0.0642329
0.0669085
0.0696302
0.0723938
0.0751951
0.0780291
0.0808904
0.0837732
0.0866713
0.0895778
0.0924856
0.0953871
0.0982743
0.101139
0.103972
0.106765
0.109509
0.112194
0.114811
0.117351
0.119805
0.122164
0.124419
0.126561
0.128584
0.13048
0.132243
0.133866
0.135346
0.136678
0.137861
0.138892
0.139771
0.1405
0.14108
0.141516
0.141812
0.141975
0.142012
0.141933
0.141746
0.141464
0.141099
0.140665
0.140174
0.139643
0.139086
0.138521
0.137962
0.137426
0.136929
0.136486
0.136112
0.135813
0.135587
0.000814896
0.000745188
0.000646283
0.000518481
0.000363838
0.000186401
-9.93586e-06
-0.000221489
-0.000444725
-0.00067628
-0.000912991
-0.00115195
-0.00139052
-0.00162639
-0.00185752
-0.00208211
-0.00229863
-0.00250582
-0.00270262
-0.00288816
-0.00306177
-0.00322288
-0.0033711
-0.00350613
-0.00362779
-0.00373595
-0.00383055
-0.00391156
-0.00397898
-0.00403285
-0.00407322
-0.00410016
-0.00411371
-0.00411388
-0.00410069
-0.00407415
-0.00403424
-0.00398092
-0.00391411
-0.00383371
-0.00373957
-0.00363151
-0.00350933
-0.0033728
-0.00322166
-0.00305563
-0.00287436
-0.00267747
-0.00246457
-0.00223521
-0.00198893
-0.00172523
-0.00144359
-0.00114344
-0.000824168
-0.000485131
-0.000125645
0.000255007
0.000657569
0.00108282
0.00153156
0.00200463
0.00250293
0.00302738
0.00357894
0.00415862
0.00476746
0.00540653
0.00607697
0.0067799
0.00751652
0.00828804
0.0090957
0.00994078
0.0108246
0.0117485
0.0127138
0.0137219
0.0147742
0.0158722
0.0170171
0.0182105
0.0194537
0.020748
0.0220949
0.0234957
0.0249517
0.0264641
0.028034
0.0296626
0.0313509
0.0330998
0.03491
0.0367822
0.0387169
0.0407144
0.0427748
0.044898
0.0470836
0.0493312
0.0516399
0.0540084
0.0564353
0.0589187
0.0614565
0.0640461
0.0666844
0.0693682
0.0720935
0.074856
0.077651
0.0804734
0.0833174
0.0861769
0.0890454
0.0919158
0.0947807
0.0976322
0.100462
0.103263
0.106024
0.108738
0.111395
0.113986
0.116503
0.118935
0.121275
0.123513
0.125642
0.127654
0.129542
0.131299
0.13292
0.1344
0.135736
0.136924
0.137965
0.138856
0.139599
0.140197
0.140653
0.140972
0.141159
0.141223
0.141172
0.141015
0.140763
0.140428
0.140023
0.13956
0.139054
0.138518
0.137968
0.137417
0.136879
0.136367
0.135896
0.135477
0.135103
0.134762
0.00113566
0.0010243
0.00089647
0.000748896
0.000579576
0.000392075
0.000189882
-2.39509e-05
-0.000246468
-0.000474828
-0.000706351
-0.000938574
-0.00116927
-0.00139644
-0.00161833
-0.00183339
-0.00204031
-0.00223798
-0.00242549
-0.00260208
-0.00276712
-0.00292015
-0.0030608
-0.00318881
-0.003304
-0.00340624
-0.00349545
-0.00357158
-0.00363463
-0.0036846
-0.00372152
-0.00374541
-0.00375627
-0.00375409
-0.00373885
-0.00371052
-0.00366907
-0.00361441
-0.00354643
-0.003465
-0.00336994
-0.00326105
-0.00313812
-0.00300091
-0.00284912
-0.00268246
-0.00250057
-0.00230307
-0.00208954
-0.00185956
-0.00161265
-0.00134832
-0.00106605
-0.000765267
-0.000445379
-0.000105743
0.000254312
0.000635484
0.0010385
0.00146411
0.00191311
0.00238632
0.00288459
0.00340882
0.00395996
0.00453898
0.00514689
0.00578473
0.00645358
0.00715455
0.00788878
0.00865744
0.00946174
0.0103029
0.0111822
0.0121009
0.0130604
0.014062
0.015107
0.0161967
0.0173327
0.0185161
0.0197483
0.0210308
0.0223648
0.0237516
0.0251924
0.0266885
0.0282411
0.0298511
0.0315196
0.0332474
0.0350354
0.0368842
0.0387942
0.0407658
0.0427992
0.0448943
0.0470508
0.0492682
0.0515456
0.0538821
0.0562761
0.0587259
0.0612295
0.0637844
0.0663877
0.0690361
0.0717259
0.0744531
0.077213
0.0800005
0.0828102
0.085636
0.0884717
0.0913103
0.0941445
0.0969668
0.0997691
0.102543
0.10528
0.107971
0.110608
0.113181
0.115681
0.1181
0.120428
0.122657
0.124779
0.126786
0.128671
0.130429
0.132052
0.133538
0.13488
0.136079
0.13713
0.138035
0.138794
0.139408
0.139883
0.140221
0.14043
0.140515
0.140486
0.140352
0.140122
0.139809
0.139423
0.138978
0.138485
0.137959
0.137411
0.136856
0.136303
0.135766
0.135255
0.134782
0.134327
0.133867
0.00148641
0.00133037
0.00117059
0.00100023
0.00081311
0.000612385
0.00040118
0.00018196
-4.28514e-05
-0.00027089
-0.000499943
-0.000727974
-0.000953124
-0.00117372
-0.00138828
-0.00159552
-0.00179435
-0.00198384
-0.00216321
-0.00233182
-0.00248916
-0.00263481
-0.0027685
-0.00288998
-0.00299911
-0.00309576
-0.00317985
-0.00325134
-0.0033102
-0.00335643
-0.00339003
-0.00341098
-0.00341926
-0.00341483
-0.00339765
-0.00336766
-0.00332479
-0.00326893
-0.00319994
-0.00311765
-0.00302188
-0.00291239
-0.00278897
-0.00265134
-0.00249921
-0.00233226
-0.00215011
-0.0019524
-0.00173868
-0.00150854
-0.0012615
-0.000997072
-0.000714736
-0.000413935
-9.40718e-05
0.000245481
0.00060538
0.000986308
0.00138897
0.0018141
0.00226246
0.00273485
0.00323211
0.0037551
0.00430475
0.00488198
0.00548778
0.00612316
0.00678915
0.00748683
0.00821729
0.00898168
0.00978115
0.0106169
0.0114901
0.0124021
0.0133542
0.0143475
0.0153835
0.0164633
0.0175885
0.0187602
0.0199798
0.0212486
0.0225679
0.0239389
0.025363
0.0268411
0.0283746
0.0299644
0.0316116
0.033317
0.0350814
0.0369056
0.0387899
0.0407348
0.0427404
0.0448068
0.0469337
0.0491207
0.051367
0.0536717
0.0560335
0.0584506
0.0609211
0.0634428
0.0660128
0.0686281
0.071285
0.0739797
0.0767076
0.0794639
0.0822432
0.0850398
0.0878474
0.0906592
0.0934682
0.0962669
0.0990474
0.101801
0.104521
0.107196
0.109819
0.11238
0.114871
0.117283
0.119606
0.121833
0.123954
0.125963
0.127853
0.129616
0.131248
0.132742
0.134097
0.135307
0.136373
0.137293
0.138068
0.1387
0.139193
0.139549
0.139776
0.13988
0.139869
0.139752
0.139538
0.139239
0.138865
0.138428
0.137939
0.137412
0.136858
0.136287
0.135711
0.135139
0.134581
0.134048
0.133508
0.132929
0.00185909
0.00165639
0.00146248
0.00126699
0.00105957
0.000843009
0.000620144
0.000392917
0.00016325
-6.69544e-05
-0.000295919
-0.000521995
-0.000743676
-0.000959606
-0.00116859
-0.0013696
-0.00156176
-0.00174432
-0.00191666
-0.00207826
-0.00222873
-0.00236776
-0.00249511
-0.00261061
-0.00271414
-0.00280559
-0.00288489
-0.00295201
-0.00300693
-0.00304964
-0.0030801
-0.00309829
-0.00310415
-0.00309763
-0.00307866
-0.00304717
-0.00300306
-0.00294618
-0.00287636
-0.00279342
-0.00269715
-0.00258731
-0.00246366
-0.00232591
-0.00217375
-0.00200684
-0.00182482
-0.00162727
-0.0014138
-0.00118395
-0.000937276
-0.000673276
-0.000391437
-9.12061e-05
0.000228002
0.000566804
0.000925841
0.00130578
0.00170729
0.0021311
0.00257794
0.0030486
0.00354388
0.00406462
0.0046117
0.00518604
0.00578857
0.00642027
0.00708215
0.00777523
0.00850057
0.00925927
0.0100525
0.0108813
0.0117469
0.0126506
0.0135935
0.014577
0.0156022
0.0166705
0.0177831
0.0189414
0.0201465
0.0213999
0.0227027
0.0240562
0.0254616
0.0269201
0.0284328
0.0300008
0.0316251
0.0333065
0.035046
0.0368441
0.0387015
0.0406186
0.0425955
0.0446325
0.0467292
0.0488855
0.0511005
0.0533735
0.0557033
0.0580883
0.0605267
0.0630163
0.0655545
0.0681384
0.0707645
0.0734291
0.0761279
0.0788561
0.0816086
0.0843797
0.0871634
0.089953
0.0927416
0.0955219
0.098286
0.101026
0.103733
0.106399
0.109014
0.111571
0.114059
0.11647
0.118795
0.121026
0.123154
0.125171
0.127071
0.128846
0.130491
0.132
0.13337
0.134597
0.13568
0.136618
0.137411
0.138062
0.138572
0.138946
0.13919
0.13931
0.139313
0.139209
0.139006
0.138715
0.138345
0.137909
0.137418
0.136882
0.136312
0.135718
0.135111
0.134497
0.133887
0.13329
0.132664
0.131969
0.00224641
0.00199581
0.00176624
0.00154385
0.00131414
0.00107962
0.000842916
0.000605498
0.0003688
0.000134289
-9.6647e-05
-0.000322722
-0.000542769
-0.000755748
-0.000960748
-0.00115698
-0.00134379
-0.00152061
-0.00168698
-0.00184252
-0.00198697
-0.00212011
-0.00224179
-0.00235188
-0.00245029
-0.00253697
-0.00261186
-0.00267496
-0.00272625
-0.00276569
-0.00279326
-0.00280889
-0.00281254
-0.00280413
-0.00278358
-0.00275079
-0.00270562
-0.00264792
-0.00257749
-0.00249413
-0.00239761
-0.00228768
-0.00216408
-0.0020265
-0.00187463
-0.00170811
-0.00152656
-0.00132959
-0.00111677
-0.000887674
-0.000641837
-0.000378774
-9.79729e-05
0.000201111
0.000519054
0.000856458
0.00121395
0.00159216
0.00199176
0.00241344
0.00285791
0.00332593
0.00381828
0.00433577
0.00487926
0.00544961
0.00604773
0.00667457
0.00733109
0.00801828
0.00873716
0.00948878
0.0102742
0.0110947
0.0119512
0.0128449
0.0137771
0.014749
0.0157618
0.0168168
0.0179151
0.0190581
0.020247
0.021483
0.0227675
0.0241017
0.0254867
0.0269237
0.0284139
0.0299584
0.0315581
0.033214
0.0349269
0.0366977
0.0385268
0.0404148
0.042362
0.0443686
0.0464344
0.0485593
0.0507427
0.0529839
0.0552817
0.0576348
0.0600416
0.0625
0.0650075
0.0675614
0.0701585
0.072795
0.075467
0.0781698
0.0808985
0.0836475
0.0864109
0.0891824
0.091955
0.0947214
0.0974741
0.100205
0.102906
0.105568
0.108182
0.110739
0.113231
0.115648
0.117982
0.120223
0.122364
0.124395
0.126311
0.128103
0.129767
0.131296
0.132686
0.133934
0.135038
0.135997
0.136811
0.137481
0.138011
0.138403
0.138663
0.138797
0.138813
0.138718
0.138522
0.138234
0.137864
0.137424
0.136922
0.136371
0.135779
0.135156
0.134511
0.133851
0.133185
0.132522
0.131811
0.131003
0.00264172
0.00234254
0.00207625
0.00182562
0.00157208
0.00131792
0.00106562
0.000816191
0.000570625
0.000329996
9.53267e-05
-0.000132444
-0.000352477
-0.000564035
-0.00076648
-0.000959264
-0.00114194
-0.00131412
-0.00147553
-0.00162594
-0.0017652
-0.00189319
-0.00200985
-0.00211511
-0.00220894
-0.00229131
-0.00236222
-0.00242168
-0.00246966
-0.00250615
-0.0025311
-0.00254445
-0.00254613
-0.00253607
-0.00251418
-0.00248031
-0.00243432
-0.00237602
-0.00230521
-0.00222167
-0.00212515
-0.0020154
-0.00189213
-0.00175503
-0.00160376
-0.00143796
-0.00125725
-0.00106123
-0.000849481
-0.000621567
-0.000377032
-0.000115399
0.000163842
0.000461227
0.000777318
0.0011127
0.00146797
0.00184376
0.0022407
0.00265947
0.00310074
0.00356526
0.00405376
0.00456704
0.00510591
0.00567121
0.00626382
0.00688463
0.00753457
0.0082146
0.00892569
0.00966887
0.0104452
0.0112557
0.0121015
0.0129838
0.0139037
0.0148624
0.0158611
0.0169009
0.0179832
0.0191091
0.0202799
0.0214969
0.0227612
0.0240741
0.0254368
0.0268506
0.0283165
0.0298356
0.031409
0.0330377
0.0347225
0.0364643
0.0382637
0.0401213
0.0420376
0.0440126
0.0460466
0.0481394
0.0502905
0.0524993
0.054765
0.0570863
0.0594617
0.0618893
0.0643669
0.0668919
0.0694612
0.0720714
0.0747185
0.0773981
0.0801055
0.0828353
0.0855818
0.0883385
0.091099
0.0938558
0.0966016
0.0993283
0.102028
0.104691
0.107309
0.109874
0.112375
0.114804
0.117152
0.11941
0.121569
0.123622
0.125559
0.127375
0.129063
0.130617
0.132032
0.133306
0.134435
0.135419
0.136256
0.136949
0.137499
0.13791
0.138186
0.138334
0.138361
0.138274
0.138082
0.137794
0.13742
0.13697
0.136454
0.135882
0.135263
0.134607
0.13392
0.13321
0.132486
0.131756
0.130961
0.130046
0.00303895
0.00269086
0.00238716
0.0021073
0.00182877
0.00155368
0.00128436
0.00102142
0.000765463
0.000517198
0.000277298
4.63657e-05
-0.000175072
-0.000386564
-0.000587729
-0.000778258
-0.000957906
-0.00112649
-0.0012839
-0.00143006
-0.00156493
-0.00168851
-0.00180081
-0.00190184
-0.00199162
-0.00207019
-0.00213757
-0.00219379
-0.00223885
-0.00227272
-0.00229536
-0.00230672
-0.00230673
-0.00229529
-0.0022723
-0.00223761
-0.00219104
-0.00213239
-0.00206145
-0.00197798
-0.00188174
-0.00177244
-0.00164978
-0.00151345
-0.00136309
-0.00119834
-0.00101881
-0.000824111
-0.000613819
-0.000387503
-0.000144712
0.000115026
0.000392212
0.00068737
0.00100105
0.00133381
0.00168624
0.00205893
0.00245251
0.0028676
0.00330489
0.00376506
0.00424884
0.00475697
0.00529025
0.00584947
0.00643548
0.00704913
0.00769131
0.00836293
0.00906494
0.00979833
0.0105641
0.0113633
0.0121969
0.0130662
0.0139722
0.014916
0.0158988
0.0169218
0.0179863
0.0190934
0.0202443
0.0214402
0.0226825
0.0239724
0.025311
0.0266995
0.0281392
0.0296312
0.0311765
0.0327762
0.0344312
0.0361424
0.0379105
0.0397363
0.0416201
0.0435625
0.0455635
0.0476231
0.0497411
0.051917
0.0541501
0.0564393
0.0587833
0.0611804
0.0636285
0.0661252
0.0686677
0.0712527
0.0738764
0.0765347
0.079223
0.081936
0.0846682
0.0874134
0.090165
0.092916
0.0956589
0.0983857
0.101088
0.103758
0.106385
0.108962
0.111478
0.113926
0.116294
0.118574
0.120758
0.122837
0.124803
0.126648
0.128366
0.129951
0.131397
0.132701
0.13386
0.134872
0.135737
0.136455
0.137028
0.137459
0.137753
0.137915
0.137953
0.137872
0.137683
0.137392
0.137011
0.136549
0.136015
0.135418
0.134769
0.134075
0.133343
0.13258
0.131797
0.131
0.130123
0.129106
0.00343246
0.0030354
0.00269388
0.00238413
0.00207975
0.00178271
0.00149524
0.00121759
0.000949991
0.000692824
0.000446423
0.000211071
-1.30004e-05
-0.000225611
-0.000426632
-0.000615981
-0.000793624
-0.000959573
-0.00111388
-0.00125662
-0.00138788
-0.00150776
-0.00161635
-0.00171375
-0.00180004
-0.00187532
-0.00193965
-0.00199306
-0.00203559
-0.0020672
-0.00208788
-0.00209757
-0.00209621
-0.00208369
-0.00205988
-0.00202462
-0.00197773
-0.00191899
-0.00184818
-0.00176505
-0.00166933
-0.00156075
-0.00143899
-0.00130371
-0.00115455
-0.000991165
-0.000813153
-0.00062012
-0.000411652
-0.000187324
5.33095e-05
0.000310715
0.000585381
0.00087782
0.00118856
0.00151815
0.00186713
0.0022361
0.00262563
0.00303634
0.00346888
0.00392391
0.00440212
0.00490422
0.00543096
0.00598312
0.00656148
0.00716688
0.00780014
0.00846216
0.00915384
0.00987612
0.01063
0.0114164
0.0122364
0.0130911
0.0139816
0.0149089
0.0158742
0.0168787
0.0179236
0.01901
0.0201392
0.0213123
0.0225307
0.0237956
0.0251082
0.0264696
0.0278813
0.0293442
0.0308595
0.0324284
0.0340518
0.0357307
0.0374659
0.0392582
0.0411082
0.0430165
0.0449832
0.0470085
0.0490924
0.0512346
0.0534344
0.055691
0.0580032
0.0603696
0.0627883
0.0652572
0.0677734
0.0703341
0.0729356
0.075574
0.0782448
0.0809431
0.0836633
0.0863995
0.0891453
0.0918937
0.0946372
0.097368
0.100078
0.102758
0.1054
0.107994
0.110531
0.113001
0.115395
0.117704
0.119919
0.122031
0.124031
0.125911
0.127665
0.129286
0.130769
0.132108
0.133302
0.134347
0.135243
0.13599
0.136589
0.137044
0.137357
0.137535
0.137583
0.137509
0.137321
0.137028
0.136637
0.13616
0.135605
0.134982
0.134299
0.133564
0.132786
0.13197
0.131125
0.130262
0.129306
0.128191
0.00381702
0.0033711
0.00299159
0.0026515
0.00232064
0.00200087
0.00169438
0.00140106
0.00112083
0.000853709
0.000599739
0.000358899
0.00013114
-8.36208e-05
-0.000285495
-0.000474626
-0.000651189
-0.000815385
-0.000967427
-0.00110754
-0.00123592
-0.00135278
-0.00145831
-0.00155267
-0.00163604
-0.00170855
-0.00177029
-0.00182135
-0.00186174
-0.00189149
-0.00191057
-0.00191894
-0.00191652
-0.00190321
-0.00187887
-0.00184333
-0.00179638
-0.00173781
-0.00166738
-0.00158484
-0.00148992
-0.00138231
-0.0012617
-0.00112774
-0.000980077
-0.000818339
-0.000642146
-0.000451099
-0.000244795
-2.28122e-05
0.000215286
0.000469957
0.000741679
0.00103094
0.00133826
0.00166414
0.00200914
0.00237378
0.00275865
0.00316432
0.0035914
0.00404054
0.00451238
0.0050076
0.00552692
0.00607106
0.00664078
0.00723687
0.00786012
0.00851137
0.0091915
0.0099014
0.010642
0.0114143
0.0122192
0.0130579
0.0139313
0.0148405
0.0157867
0.016771
0.0177946
0.0188586
0.0199642
0.0211127
0.0223053
0.0235433
0.024828
0.0261605
0.0275421
0.0289741
0.0304576
0.0319938
0.0335838
0.0352286
0.0369291
0.0386863
0.0405009
0.0423735
0.0443045
0.0462943
0.0483429
0.0504502
0.0526158
0.054839
0.057119
0.0594543
0.0618435
0.0642844
0.0667747
0.0693116
0.0718916
0.0745111
0.0771658
0.0798509
0.082561
0.0852905
0.0880329
0.0907815
0.0935288
0.0962671
0.0989881
0.101683
0.104343
0.106959
0.109521
0.11202
0.114446
0.116789
0.119041
0.121191
0.123231
0.125152
0.126948
0.128612
0.130137
0.131518
0.132751
0.133835
0.134767
0.135547
0.136176
0.136656
0.136992
0.137187
0.137248
0.137181
0.136995
0.136697
0.136297
0.135804
0.135226
0.134574
0.133856
0.13308
0.132253
0.131382
0.130477
0.129548
0.128516
0.127308
0.00418773
0.00369318
0.00327563
0.00290494
0.00254715
0.00220411
0.00187793
0.00156822
0.00127453
0.000996614
0.000734191
0.000486966
0.000254621
3.68221e-05
-0.000166781
-0.000356554
-0.000532874
-0.000696125
-0.000846679
-0.000984889
-0.00111109
-0.00122559
-0.00132867
-0.00142059
-0.00150158
-0.00157183
-0.00163147
-0.00168061
-0.00171929
-0.00174756
-0.00176541
-0.00177281
-0.00176966
-0.00175587
-0.00173128
-0.00169572
-0.00164898
-0.00159083
-0.00152104
-0.00143935
-0.00134546
-0.00123906
-0.00111984
-0.000987451
-0.000841526
-0.0006817
-0.000507596
-0.000318824
-0.000114985
0.000104333
0.000339558
0.000591138
0.000859532
0.00114521
0.00144866
0.00177038
0.00211088
0.00247067
0.00285029
0.0032503
0.00367128
0.00411382
0.00457854
0.0050661
0.00557715
0.00611238
0.00667252
0.0072583
0.00787049
0.00850987
0.00917729
0.0098736
0.0105997
0.0113565
0.012145
0.0129661
0.013821
0.0147106
0.0156361
0.0165985
0.017599
0.0186389
0.0197192
0.0208412
0.0220063
0.0232155
0.0244703
0.025772
0.0271217
0.0285208
0.0299706
0.0314722
0.0330269
0.0346357
0.0362998
0.0380202
0.0397976
0.0416329
0.0435268
0.0454795
0.0474915
0.0495627
0.051693
0.0538819
0.0561288
0.0584325
0.0607916
0.0632044
0.0656687
0.0681819
0.0707409
0.0733421
0.0759816
0.0786546
0.0813562
0.0840807
0.0868218
0.0895729
0.0923267
0.0950755
0.097811
0.100525
0.103207
0.105849
0.108442
0.110974
0.113436
0.115819
0.118113
0.120307
0.122393
0.124362
0.126207
0.127918
0.129491
0.13092
0.132199
0.133326
0.134299
0.135117
0.13578
0.136291
0.136651
0.136867
0.136942
0.136885
0.136701
0.1364
0.13599
0.13548
0.13488
0.134198
0.133443
0.132624
0.131749
0.130823
0.129858
0.128864
0.127757
0.126459
0.00453994
0.00399706
0.00354153
0.00314011
0.00275514
0.00238844
0.0020421
0.00171542
0.00140765
0.00111824
0.000846645
0.000592292
0.000354606
0.000133006
-7.30927e-05
-0.000264269
-0.000441099
-0.000604135
-0.000753902
-0.000890888
-0.00101555
-0.0011283
-0.00122954
-0.00131959
-0.00139874
-0.00146723
-0.00152524
-0.00157289
-0.00161028
-0.00163747
-0.00165446
-0.00166121
-0.00165766
-0.00164368
-0.00161912
-0.00158381
-0.00153752
-0.00148005
-0.00141113
-0.0013305
-0.00123785
-0.00113289
-0.00101528
-0.000884668
-0.000740699
-0.000583011
-0.000411232
-0.00022498
-2.38645e-05
0.000192517
0.000424581
0.000672761
0.000937496
0.00121924
0.00151844
0.00183557
0.00217112
0.00252557
0.00289944
0.00329324
0.00370751
0.00414281
0.00459974
0.0050789
0.0055809
0.0061064
0.00665607
0.00723061
0.00783074
0.00845721
0.00911082
0.00979237
0.0105027
0.0112428
0.0120135
0.0128158
0.0136507
0.0145191
0.0154223
0.0163613
0.0173372
0.0183511
0.0194044
0.0204982
0.0216338
0.0228125
0.0240357
0.0253045
0.0266205
0.0279848
0.0293989
0.0308641
0.0323816
0.0339526
0.0355784
0.0372601
0.0389987
0.040795
0.04265
0.0445641
0.046538
0.0485718
0.0506655
0.052819
0.0550317
0.0573029
0.0596313
0.0620154
0.0644534
0.0669427
0.0694807
0.072064
0.0746887
0.0773506
0.0800446
0.0827654
0.0855069
0.0882625
0.0910251
0.093787
0.09654
0.0992754
0.101984
0.104657
0.107283
0.109853
0.112358
0.114785
0.117126
0.119371
0.121509
0.123532
0.12543
0.127197
0.128824
0.130306
0.131637
0.132814
0.133833
0.134694
0.135396
0.135941
0.136331
0.13657
0.136663
0.136617
0.136438
0.136134
0.135715
0.135189
0.134565
0.133854
0.133062
0.132201
0.131276
0.130295
0.12927
0.128213
0.127033
0.125649
0.0048692
0.00427835
0.00378498
0.00335281
0.00294053
0.00254992
0.00218308
0.00183901
0.00151667
0.00121524
0.000933899
0.000671813
0.000428155
0.000202101
-7.15799e-06
-0.000200408
-0.00037841
-0.000541881
-0.000691494
-0.000827874
-0.000951599
-0.0010632
-0.00116315
-0.00125186
-0.00132968
-0.00139689
-0.00145371
-0.0015003
-0.00153681
-0.00156329
-0.00157977
-0.00158622
-0.00158256
-0.00156867
-0.00154441
-0.00150958
-0.00146399
-0.0014074
-0.00133956
-0.00126019
-0.00116898
-0.00106563
-0.000949798
-0.000821141
-0.000679305
-0.000523937
-0.000354671
-0.000171136
2.70497e-05
0.000240277
0.000468947
0.000713474
0.000974275
0.00125177
0.0015464
0.0018586
0.00218882
0.00253752
0.00290518
0.00329227
0.00369931
0.00412681
0.00457532
0.00504541
0.00553766
0.00605267
0.00659106
0.00715349