/*--------------------------------*- C++ -*----------------------------------*\
  =========                 |
  \\      /  F ield         | OpenFOAM: The Open Source CFD Toolbox
   \\    /   O peration     | Website:  https://openfoam.org
    \\  /    A nd           | Version:  7
     \\/     M anipulation  |
\*---------------------------------------------------------------------------*/
FoamFile
{
    version     2.0;
    format      ascii;
    class       surfaceScalarField;
    location    "0.3";
    object      phi;
}
// * * * * * * * * * * * * * * * * * * * * * * * * * * * * * * * * * * * * * //

dimensions      [0 3 -1 0 0 0 0];

internalField   nonuniform List<scalar> 
25360
(
5.05761e-11
-5.41902e-11
1.93297e-10
-1.42728e-10
3.61079e-10
-1.67768e-10
5.06388e-10
-1.45311e-10
6.01128e-10
-9.47441e-11
6.29385e-10
-2.82612e-11
5.83016e-10
4.63621e-11
4.58923e-10
1.24101e-10
2.57216e-10
2.01702e-10
-1.98797e-11
2.77087e-10
-3.68809e-10
3.48928e-10
-7.85211e-10
4.16396e-10
-1.26422e-09
4.79005e-10
-1.80074e-09
5.36531e-10
-2.38965e-09
5.88915e-10
-3.02588e-09
6.36225e-10
-3.7045e-09
6.78627e-10
-4.42084e-09
7.16349e-10
-5.17051e-09
7.49662e-10
-5.94938e-09
7.78874e-10
-6.75368e-09
8.04302e-10
-7.57995e-09
8.26269e-10
-8.42505e-09
8.45103e-10
-9.28619e-09
8.61132e-10
-1.01609e-08
8.74672e-10
-1.10469e-08
8.86018e-10
-1.19423e-08
8.95452e-10
-1.28456e-08
9.03246e-10
-1.37552e-08
9.09653e-10
-1.46701e-08
9.14908e-10
-1.55893e-08
9.19223e-10
-1.65121e-08
9.22792e-10
-1.74379e-08
9.2579e-10
-1.83663e-08
9.2838e-10
-1.9297e-08
9.30707e-10
-2.02299e-08
9.32899e-10
-2.1165e-08
9.35072e-10
-2.21023e-08
9.37323e-10
-2.3042e-08
9.39742e-10
-2.39844e-08
9.42407e-10
-2.49298e-08
9.45386e-10
-2.58786e-08
9.48736e-10
-2.68311e-08
9.52504e-10
-2.77878e-08
9.56733e-10
-2.87493e-08
9.61456e-10
-2.9716e-08
9.66702e-10
-3.06885e-08
9.72494e-10
-3.16673e-08
9.78848e-10
-3.26531e-08
9.85781e-10
-3.36464e-08
9.93298e-10
-3.46478e-08
1.0014e-09
-3.56579e-08
1.0101e-09
-3.66773e-08
1.01938e-09
-3.77065e-08
1.02924e-09
-3.87462e-08
1.03967e-09
-3.97969e-08
1.05066e-09
-4.08591e-08
1.06219e-09
-4.19333e-08
1.07423e-09
-4.302e-08
1.08676e-09
-4.41198e-08
1.09975e-09
-4.5233e-08
1.11318e-09
-4.636e-08
1.12699e-09
-4.75011e-08
1.14116e-09
-4.86568e-08
1.15563e-09
-4.98271e-08
1.17035e-09
-5.10124e-08
1.18526e-09
-5.22127e-08
1.2003e-09
-5.34281e-08
1.2154e-09
-5.46586e-08
1.23048e-09
-5.5904e-08
1.24545e-09
-5.71642e-08
1.26024e-09
-5.8439e-08
1.27473e-09
-5.97278e-08
1.28883e-09
-6.10302e-08
1.30242e-09
-6.23456e-08
1.31538e-09
-6.36732e-08
1.32758e-09
-6.50121e-08
1.33888e-09
-6.63612e-08
1.34913e-09
-6.77194e-08
1.35818e-09
-6.90853e-08
1.36586e-09
-7.04572e-08
1.37199e-09
-7.18336e-08
1.37638e-09
-7.32125e-08
1.37885e-09
-7.45917e-08
1.37918e-09
-7.59688e-08
1.37717e-09
-7.73414e-08
1.3726e-09
-7.87067e-08
1.36523e-09
-8.00615e-08
1.35483e-09
-8.14027e-08
1.34116e-09
-8.27266e-08
1.32397e-09
-8.40296e-08
1.30301e-09
-8.53076e-08
1.27801e-09
-8.65564e-08
1.24873e-09
-8.77713e-08
1.2149e-09
-8.89475e-08
1.17627e-09
-9.00801e-08
1.13259e-09
-9.11637e-08
1.08361e-09
-9.21928e-08
1.02909e-09
-9.31616e-08
9.68824e-10
-9.40642e-08
9.02586e-10
-9.48944e-08
8.30193e-10
-9.56459e-08
7.51476e-10
-9.63122e-08
6.66296e-10
-9.68867e-08
5.74541e-10
-9.73629e-08
4.76135e-10
-9.77339e-08
3.71041e-10
-9.79932e-08
2.59268e-10
-9.81341e-08
1.40873e-10
-9.815e-08
1.5969e-11
-9.80347e-08
-1.15285e-10
-9.77821e-08
-2.5265e-10
-9.73863e-08
-3.95835e-10
-9.68418e-08
-5.4447e-10
-9.61437e-08
-6.98109e-10
-9.52874e-08
-8.56232e-10
-9.42692e-08
-1.01824e-09
-9.30857e-08
-1.18345e-09
-9.17346e-08
-1.3511e-09
-9.02143e-08
-1.52035e-09
-8.8524e-08
-1.69026e-09
-8.66642e-08
-1.85983e-09
-8.46362e-08
-2.02799e-09
-8.24426e-08
-2.19358e-09
-8.00872e-08
-2.3554e-09
-7.7575e-08
-2.51219e-09
-7.49124e-08
-2.66264e-09
-7.2107e-08
-2.80542e-09
-6.91678e-08
-2.93917e-09
-6.61052e-08
-3.06254e-09
-6.29311e-08
-3.17418e-09
-5.96583e-08
-3.27276e-09
-5.63013e-08
-3.35701e-09
-5.28756e-08
-3.42571e-09
-4.93978e-08
-3.47773e-09
-4.58858e-08
-3.51203e-09
-4.23581e-08
-3.52767e-09
-3.88343e-08
-3.52385e-09
-3.53344e-08
-3.4999e-09
-3.18791e-08
-3.45531e-09
-2.84893e-08
-3.38974e-09
-2.51864e-08
-3.30298e-09
-2.19913e-08
-3.19505e-09
-1.89252e-08
-3.06609e-09
-1.60087e-08
-2.91647e-09
-1.32621e-08
-2.7467e-09
-1.07046e-08
-2.55748e-09
-8.35485e-09
-2.34972e-09
-6.23036e-09
-2.1245e-09
-4.3472e-09
-1.88316e-09
-2.71988e-09
-1.62731e-09
-1.36089e-09
-1.35899e-09
-2.8009e-10
-1.0808e-09
5.16239e-10
-7.96328e-10
1.02694e-09
-5.10695e-10
1.25866e-09
-2.31724e-10
1.23066e-09
2.80069e-11
9.82857e-10
2.47797e-10
5.90289e-10
3.92567e-10
1.90322e-10
3.99967e-10
1.90323e-10
1.41402e-10
-1.95611e-10
4.07809e-10
-4.0913e-10
6.88483e-10
-4.4845e-10
9.00469e-10
-3.57282e-10
9.8488e-10
-1.7913e-10
9.03387e-10
5.32229e-11
6.33446e-10
3.16313e-10
1.63944e-10
5.93607e-10
-5.07969e-10
8.73628e-10
-1.37936e-09
1.1485e-09
-2.44332e-09
1.41288e-09
-3.69017e-09
1.66324e-09
-5.10851e-09
1.89735e-09
-6.68594e-09
2.11397e-09
-8.40956e-09
2.31253e-09
-1.02664e-08
2.49301e-09
-1.22435e-08
2.65579e-09
-1.43287e-08
2.8015e-09
-1.651e-08
2.93101e-09
-1.87764e-08
3.0453e-09
-2.11176e-08
3.14545e-09
-2.35239e-08
3.23259e-09
-2.59867e-08
3.30789e-09
-2.84981e-08
3.3725e-09
-3.1051e-08
3.42756e-09
-3.36391e-08
3.47415e-09
-3.6257e-08
3.51333e-09
-3.88998e-08
3.54608e-09
-4.15635e-08
3.57335e-09
-4.42446e-08
3.59601e-09
-4.69403e-08
3.61487e-09
-4.96481e-08
3.63066e-09
-5.23664e-08
3.64407e-09
-5.50937e-08
3.65571e-09
-5.78292e-08
3.66614e-09
-6.05721e-08
3.67585e-09
-6.33223e-08
3.6853e-09
-6.60799e-08
3.69487e-09
-6.8845e-08
3.70492e-09
-7.16184e-08
3.71575e-09
-7.44006e-08
3.72763e-09
-7.71927e-08
3.74079e-09
-7.99956e-08
3.75543e-09
-8.28106e-08
3.77171e-09
-8.56389e-08
3.78977e-09
-8.84819e-08
3.80974e-09
-9.13411e-08
3.8317e-09
-9.4218e-08
3.85572e-09
-9.71141e-08
3.88186e-09
-1.00031e-07
3.91015e-09
-1.0297e-07
3.94062e-09
-1.05933e-07
3.97327e-09
-1.08922e-07
4.00807e-09
-1.11938e-07
4.04501e-09
-1.14982e-07
4.08405e-09
-1.18057e-07
4.12513e-09
-1.21163e-07
4.16817e-09
-1.24301e-07
4.21309e-09
-1.27474e-07
4.25979e-09
-1.30683e-07
4.30815e-09
-1.33928e-07
4.35804e-09
-1.3721e-07
4.40931e-09
-1.40531e-07
4.46178e-09
-1.4389e-07
4.51526e-09
-1.47289e-07
4.56955e-09
-1.50729e-07
4.6244e-09
-1.54208e-07
4.67957e-09
-1.57727e-07
4.73478e-09
-1.61287e-07
4.78971e-09
-1.64885e-07
4.84406e-09
-1.68522e-07
4.89744e-09
-1.72197e-07
4.94949e-09
-1.75908e-07
4.99978e-09
-1.79653e-07
5.04787e-09
-1.83431e-07
5.09328e-09
-1.87239e-07
5.13551e-09
-1.91074e-07
5.17402e-09
-1.94933e-07
5.20823e-09
-1.98813e-07
5.23753e-09
-2.02708e-07
5.26129e-09
-2.06615e-07
5.27881e-09
-2.10528e-07
5.28941e-09
-2.14442e-07
5.29232e-09
-2.18349e-07
5.28677e-09
-2.22244e-07
5.27197e-09
-2.26118e-07
5.24707e-09
-2.29964e-07
5.21121e-09
-2.33773e-07
5.16349e-09
-2.37535e-07
5.10302e-09
-2.4124e-07
5.02886e-09
-2.44877e-07
4.94008e-09
-2.48435e-07
4.83573e-09
-2.51901e-07
4.71485e-09
-2.55262e-07
4.57651e-09
-2.58506e-07
4.41977e-09
-2.61617e-07
4.24373e-09
-2.64581e-07
4.04748e-09
-2.67382e-07
3.83021e-09
-2.70004e-07
3.59111e-09
-2.72431e-07
3.32945e-09
-2.74646e-07
3.04459e-09
-2.7663e-07
2.73595e-09
-2.78367e-07
2.40308e-09
-2.79838e-07
2.04563e-09
-2.81025e-07
1.6634e-09
-2.8191e-07
1.25634e-09
-2.82476e-07
8.24542e-10
-2.82703e-07
3.68316e-10
-2.82575e-07
-1.11843e-10
-2.82075e-07
-6.15223e-10
-2.81187e-07
-1.14088e-09
-2.79895e-07
-1.68761e-09
-2.78186e-07
-2.25396e-09
-2.76046e-07
-2.83821e-09
-2.73464e-07
-3.43834e-09
-2.7043e-07
-4.05205e-09
-2.66937e-07
-4.67673e-09
-2.62978e-07
-5.3095e-09
-2.58551e-07
-5.94715e-09
-2.53655e-07
-6.58622e-09
-2.48292e-07
-7.22295e-09
-2.42467e-07
-7.85332e-09
-2.36188e-07
-8.47307e-09
-2.29465e-07
-9.07774e-09
-2.22315e-07
-9.66266e-09
-2.14754e-07
-1.0223e-08
-2.06806e-07
-1.0754e-08
-1.98494e-07
-1.12505e-08
-1.89849e-07
-1.17076e-08
-1.80903e-07
-1.21205e-08
-1.71692e-07
-1.24842e-08
-1.62255e-07
-1.27941e-08
-1.52634e-07
-1.30459e-08
-1.42877e-07
-1.32353e-08
-1.3303e-07
-1.33587e-08
-1.23145e-07
-1.34126e-08
-1.13275e-07
-1.33941e-08
-1.03474e-07
-1.33009e-08
-9.37983e-08
-1.31311e-08
-8.43045e-08
-1.28835e-08
-7.50499e-08
-1.25576e-08
-6.60917e-08
-1.21533e-08
-5.74864e-08
-1.16714e-08
-4.92895e-08
-1.11134e-08
-4.15547e-08
-1.04814e-08
-3.43338e-08
-9.77838e-09
-2.76755e-08
-9.008e-09
-2.16252e-08
-8.17489e-09
-1.62236e-08
-7.28471e-09
-1.15065e-08
-6.34446e-09
-7.50257e-09
-5.36289e-09
-4.2321e-09
-4.35127e-09
-1.70385e-09
-3.32458e-09
8.89159e-11
-2.30347e-09
1.17465e-09
-1.31746e-09
1.61247e-09
-4.09808e-10
1.50563e-09
3.54638e-10
1.01914e-09
8.79052e-10
3.98386e-10
1.02073e-09
5.88709e-10
1.68253e-10
-3.63848e-10
4.49958e-10
-6.90853e-10
7.05544e-10
-7.04052e-10
8.34599e-10
-4.86342e-10
7.63502e-10
-1.08034e-10
4.41609e-10
3.75117e-10
-1.62905e-10
9.2082e-10
-1.06716e-09
1.49785e-09
-2.27704e-09
2.08352e-09
-3.7901e-09
2.66156e-09
-5.59775e-09
3.22053e-09
-7.68709e-09
3.75258e-09
-1.00423e-08
4.25253e-09
-1.26456e-08
4.71726e-09
-1.54782e-08
5.14516e-09
-1.8521e-08
5.53581e-09
-2.17548e-08
5.88962e-09
-2.5161e-08
6.20771e-09
-2.87216e-08
6.49163e-09
-3.24196e-08
6.74329e-09
-3.6239e-08
6.96483e-09
-4.01649e-08
7.15852e-09
-4.41838e-08
7.32673e-09
-4.82831e-08
7.47183e-09
-5.24517e-08
7.59619e-09
-5.66796e-08
7.70207e-09
-6.0958e-08
7.7917e-09
-6.52791e-08
7.86718e-09
-6.96362e-08
7.9305e-09
-7.40238e-08
7.98353e-09
-7.84369e-08
8.02799e-09
-8.28717e-08
8.06548e-09
-8.73251e-08
8.09748e-09
-9.17947e-08
8.12532e-09
-9.62788e-08
8.15021e-09
-1.00776e-07
8.17325e-09
-1.05286e-07
8.19541e-09
-1.09809e-07
8.21757e-09
-1.14345e-07
8.24051e-09
-1.18894e-07
8.26489e-09
-1.23457e-07
8.29131e-09
-1.28037e-07
8.3203e-09
-1.32634e-07
8.35229e-09
-1.3725e-07
8.38766e-09
-1.41887e-07
8.42673e-09
-1.46547e-07
8.46976e-09
-1.51232e-07
8.51696e-09
-1.55945e-07
8.5685e-09
-1.60687e-07
8.62449e-09
-1.65462e-07
8.68503e-09
-1.70272e-07
8.75015e-09
-1.75118e-07
8.81987e-09
-1.80004e-07
8.89414e-09
-1.84932e-07
8.97292e-09
-1.89904e-07
9.05611e-09
-1.94923e-07
9.14357e-09
-1.9999e-07
9.23516e-09
-2.05107e-07
9.33067e-09
-2.10278e-07
9.42987e-09
-2.15502e-07
9.53249e-09
-2.20782e-07
9.63824e-09
-2.2612e-07
9.74676e-09
-2.31515e-07
9.85767e-09
-2.36971e-07
9.97054e-09
-2.42486e-07
1.00849e-08
-2.48062e-07
1.02002e-08
-2.53698e-07
1.03159e-08
-2.59395e-07
1.04314e-08
-2.65151e-07
1.05459e-08
-2.70966e-07
1.06588e-08
-2.76838e-07
1.07693e-08
-2.82765e-07
1.08765e-08
-2.88744e-07
1.09794e-08
-2.94773e-07
1.10771e-08
-3.00849e-07
1.11686e-08
-3.06966e-07
1.12527e-08
-3.1312e-07
1.13283e-08
-3.19306e-07
1.1394e-08
-3.25517e-07
1.14486e-08
-3.31747e-07
1.14907e-08
-3.37986e-07
1.15187e-08
-3.44228e-07
1.15311e-08
-3.50462e-07
1.15263e-08
-3.56678e-07
1.15027e-08
-3.62865e-07
1.14585e-08
-3.69009e-07
1.13919e-08
-3.75099e-07
1.13011e-08
-3.8112e-07
1.1184e-08
-3.87056e-07
1.10389e-08
-3.92891e-07
1.08637e-08
-3.98607e-07
1.06565e-08
-4.04186e-07
1.04152e-08
-4.09609e-07
1.01378e-08
-4.14855e-07
9.82234e-09
-4.19902e-07
9.46691e-09
-4.24728e-07
9.06958e-09
-4.29309e-07
8.62853e-09
-4.33621e-07
8.14203e-09
-4.37638e-07
7.60847e-09
-4.41335e-07
7.02637e-09
-4.44685e-07
6.39444e-09
-4.47661e-07
5.71157e-09
-4.50235e-07
4.97689e-09
-4.52379e-07
4.18979e-09
-4.54065e-07
3.34995e-09
-4.55266e-07
2.45738e-09
-4.55954e-07
1.51245e-09
-4.56102e-07
5.1593e-10
-4.55683e-07
-5.30988e-10
-4.54671e-07
-1.62664e-09
-4.53043e-07
-2.76888e-09
-4.50776e-07
-3.95501e-09
-4.47848e-07
-5.18182e-09
-4.44241e-07
-6.44549e-09
-4.39938e-07
-7.74163e-09
-4.34924e-07
-9.06524e-09
-4.2919e-07
-1.04107e-08
-4.22728e-07
-1.17717e-08
-4.15534e-07
-1.31415e-08
-4.07607e-07
-1.45127e-08
-3.98953e-07
-1.58771e-08
-3.8958e-07
-1.72264e-08
-3.79502e-07
-1.85513e-08
-3.68737e-07
-1.98426e-08
-3.57309e-07
-2.10903e-08
-3.45248e-07
-2.22842e-08
-3.32588e-07
-2.34142e-08
-3.19369e-07
-2.44697e-08
-3.05636e-07
-2.54404e-08
-2.91441e-07
-2.63158e-08
-2.76839e-07
-2.70859e-08
-2.61892e-07
-2.7741e-08
-2.46666e-07
-2.82718e-08
-2.31232e-07
-2.86697e-08
-2.15664e-07
-2.89268e-08
-2.0004e-07
-2.90361e-08
-1.84442e-07
-2.89916e-08
-1.68955e-07
-2.87883e-08
-1.53664e-07
-2.84225e-08
-1.38655e-07
-2.78918e-08
-1.24018e-07
-2.71949e-08
-1.09839e-07
-2.63321e-08
-9.62052e-08
-2.53054e-08
-8.32007e-08
-2.41179e-08
-7.09075e-08
-2.27747e-08
-5.94036e-08
-2.12823e-08
-4.87624e-08
-1.96492e-08
-3.90512e-08
-1.78861e-08
-3.03301e-08
-1.60058e-08
-2.265e-08
-1.40246e-08
-1.60505e-08
-1.19624e-08
-1.05571e-08
-9.84461e-09
-6.17733e-09
-7.70437e-09
-2.89505e-09
-5.58574e-09
-6.63564e-10
-3.54895e-09
6.04472e-10
-1.67784e-09
1.0497e-09
-9.05887e-11
8.80731e-10
1.04802e-09
3.90716e-10
1.51074e-09
9.79425e-10
1.47619e-10
-5.11463e-10
3.61815e-10
-9.05032e-10
4.91034e-10
-8.33266e-10
4.26813e-10
-4.22139e-10
8.94035e-11
2.29385e-10
-5.77287e-10
1.04181e-09
-1.60961e-09
1.95314e-09
-3.02792e-09
2.91617e-09
-4.8399e-09
3.8955e-09
-7.04338e-09
4.86503e-09
-9.62867e-09
5.80582e-09
-1.25806e-08
6.70452e-09
-1.58801e-08
7.55204e-09
-1.95055e-08
8.34265e-09
-2.34335e-08
9.07317e-09
-2.76401e-08
9.74237e-09
-3.2101e-08
1.03506e-08
-3.67926e-08
1.08992e-08
-4.16916e-08
1.13907e-08
-4.67761e-08
1.18278e-08
-5.20254e-08
1.22141e-08
-5.74199e-08
1.2553e-08
-6.29418e-08
1.28486e-08
-6.85746e-08
1.31046e-08
-7.43035e-08
1.3325e-08
-8.0115e-08
1.35136e-08
-8.59973e-08
1.3674e-08
-9.194e-08
1.38099e-08
-9.79339e-08
1.39244e-08
-1.03971e-07
1.40209e-08
-1.10046e-07
1.41022e-08
-1.16151e-07
1.41711e-08
-1.22284e-07
1.42301e-08
-1.2844e-07
1.42815e-08
-1.34617e-07
1.43274e-08
-1.40814e-07
1.43696e-08
-1.47028e-07
1.44099e-08
-1.5326e-07
1.44498e-08
-1.5951e-07
1.44906e-08
-1.65779e-07
1.45335e-08
-1.72067e-07
1.45796e-08
-1.78377e-07
1.46298e-08
-1.84709e-07
1.46849e-08
-1.91067e-07
1.47454e-08
-1.97453e-07
1.48121e-08
-2.03868e-07
1.48853e-08
-2.10317e-07
1.49655e-08
-2.16801e-07
1.50528e-08
-2.23324e-07
1.51476e-08
-2.29889e-07
1.52501e-08
-2.36499e-07
1.53601e-08
-2.43157e-07
1.54779e-08
-2.49866e-07
1.56033e-08
-2.5663e-07
1.57363e-08
-2.6345e-07
1.58766e-08
-2.70331e-07
1.6024e-08
-2.77274e-07
1.61782e-08
-2.84282e-07
1.6339e-08
-2.91358e-07
1.65058e-08
-2.98504e-07
1.66783e-08
-3.05721e-07
1.68557e-08
-3.13012e-07
1.70376e-08
-3.20378e-07
1.72233e-08
-3.27819e-07
1.7412e-08
-3.35337e-07
1.76027e-08
-3.42931e-07
1.77947e-08
-3.50603e-07
1.7987e-08
-3.58349e-07
1.81783e-08
-3.66171e-07
1.83675e-08
-3.74065e-07
1.85533e-08
-3.8203e-07
1.87343e-08
-3.90063e-07
1.89091e-08
-3.9816e-07
1.90759e-08
-4.06316e-07
1.92332e-08
-4.14526e-07
1.9379e-08
-4.22785e-07
1.95114e-08
-4.31085e-07
1.96283e-08
-4.39418e-07
1.97276e-08
-4.47777e-07
1.9807e-08
-4.5615e-07
1.9864e-08
-4.64527e-07
1.98961e-08
-4.72897e-07
1.99006e-08
-4.81245e-07
1.98748e-08
-4.89558e-07
1.98158e-08
-4.9782e-07
1.97206e-08
-5.06015e-07
1.95862e-08
-5.14123e-07
1.94094e-08
-5.22126e-07
1.9187e-08
-5.30003e-07
1.89156e-08
-5.37731e-07
1.85921e-08
-5.45287e-07
1.82129e-08
-5.52647e-07
1.77748e-08
-5.59784e-07
1.72745e-08
-5.6667e-07
1.67085e-08
-5.73277e-07
1.60737e-08
-5.79574e-07
1.5367e-08
-5.85531e-07
1.45853e-08
-5.91115e-07
1.37259e-08
-5.96292e-07
1.2786e-08
-6.01029e-07
1.17635e-08
-6.05291e-07
1.06561e-08
-6.09042e-07
9.46225e-09
-6.12245e-07
8.18058e-09
-6.14866e-07
6.81025e-09
-6.16867e-07
5.3509e-09
-6.18212e-07
3.80274e-09
-6.18866e-07
2.16661e-09
-6.18794e-07
4.43998e-10
-6.17963e-07
-1.36287e-09
-6.16338e-07
-3.25097e-09
-6.13891e-07
-5.21647e-09
-6.10591e-07
-7.25464e-09
-6.06413e-07
-9.35984e-09
-6.01333e-07
-1.15255e-08
-5.95331e-07
-1.37439e-08
-5.88389e-07
-1.60067e-08
-5.80496e-07
-1.8304e-08
-5.71642e-07
-2.06254e-08
-5.61825e-07
-2.29591e-08
-5.51045e-07
-2.52926e-08
-5.3931e-07
-2.76123e-08
-5.26632e-07
-2.99039e-08
-5.13031e-07
-3.21521e-08
-4.98533e-07
-3.4341e-08
-4.83169e-07
-3.64542e-08
-4.66979e-07
-3.84746e-08
-4.50008e-07
-4.03851e-08
-4.32309e-07
-4.2168e-08
-4.13944e-07
-4.38061e-08
-3.94977e-07
-4.52821e-08
-3.75484e-07
-4.65792e-08
-3.55544e-07
-4.76812e-08
-3.35243e-07
-4.85728e-08
-3.14673e-07
-4.92394e-08
-2.93932e-07
-4.96682e-08
-2.7312e-07
-4.98474e-08
-2.52345e-07
-4.9767e-08
-2.31715e-07
-4.94189e-08
-2.1134e-07
-4.87969e-08
-1.91335e-07
-4.7897e-08
-1.71812e-07
-4.67176e-08
-1.52885e-07
-4.52593e-08
-1.34665e-07
-4.35255e-08
-1.17261e-07
-4.15221e-08
-1.00777e-07
-3.9258e-08
-8.53148e-08
-3.67448e-08
-7.09664e-08
-3.39977e-08
-5.7817e-08
-3.10355e-08
-4.59415e-08
-2.78812e-08
-3.54027e-08
-2.45634e-08
-2.62479e-08
-2.11172e-08
-1.85061e-08
-1.75864e-08
-1.21832e-08
-1.40273e-08
-7.25664e-09
-1.05123e-08
-3.66834e-09
-7.13725e-09
-1.31579e-09
-4.03039e-09
-4.16201e-11
-1.36476e-09
3.78765e-10
6.27637e-10
2.5105e-10
1.63846e-09
1.23048e-09
9.80829e-11
-6.09555e-10
1.83777e-10
-9.90695e-10
1.09036e-10
-7.58534e-10
-2.3412e-10
-7.89718e-11
-9.25559e-10
9.2082e-10
-2.02191e-09
2.13816e-09
-3.56031e-09
3.49156e-09
-5.5618e-09
4.91767e-09
-8.03425e-09
6.36795e-09
-1.0975e-08
7.80577e-09
-1.43732e-08
9.20399e-09
-1.82116e-08
1.0543e-08
-2.24687e-08
1.18091e-08
-2.71196e-08
1.29935e-08
-3.21374e-08
1.40909e-08
-3.74941e-08
1.50991e-08
-4.31615e-08
1.6018e-08
-4.91116e-08
1.68493e-08
-5.5317e-08
1.75961e-08
-6.17515e-08
1.82623e-08
-6.83902e-08
1.88528e-08
-7.52099e-08
1.93727e-08
-8.21887e-08
1.98275e-08
-8.93069e-08
2.02228e-08
-9.65463e-08
2.05644e-08
-1.0389e-07
2.08577e-08
-1.11325e-07
2.11083e-08
-1.18836e-07
2.13213e-08
-1.26413e-07
2.15017e-08
-1.34047e-07
2.16543e-08
-1.41728e-07
2.17834e-08
-1.4945e-07
2.18932e-08
-1.57207e-07
2.19873e-08
-1.64995e-07
2.20694e-08
-1.7281e-07
2.21425e-08
-1.8065e-07
2.22095e-08
-1.88513e-07
2.22729e-08
-1.96399e-07
2.23352e-08
-2.04306e-07
2.23984e-08
-2.12237e-07
2.24643e-08
-2.20192e-07
2.25345e-08
-2.28173e-07
2.26104e-08
-2.36181e-07
2.26932e-08
-2.4422e-07
2.2784e-08
-2.52291e-07
2.28837e-08
-2.60399e-07
2.29928e-08
-2.68545e-07
2.31122e-08
-2.76735e-07
2.32421e-08
-2.8497e-07
2.3383e-08
-2.93255e-07
2.3535e-08
-3.01593e-07
2.36984e-08
-3.09988e-07
2.38731e-08
-3.18444e-07
2.4059e-08
-3.26964e-07
2.4256e-08
-3.35551e-07
2.44638e-08
-3.44209e-07
2.4682e-08
-3.52941e-07
2.49103e-08
-3.6175e-07
2.5148e-08
-3.70639e-07
2.53944e-08
-3.79609e-07
2.56489e-08
-3.88664e-07
2.59106e-08
-3.97805e-07
2.61785e-08
-4.07033e-07
2.64516e-08
-4.1635e-07
2.67286e-08
-4.25755e-07
2.70083e-08
-4.3525e-07
2.72891e-08
-4.44833e-07
2.75696e-08
-4.54502e-07
2.78481e-08
-4.64257e-07
2.81225e-08
-4.74095e-07
2.83911e-08
-4.84013e-07
2.86516e-08
-4.94005e-07
2.89017e-08
-5.04068e-07
2.91389e-08
-5.14196e-07
2.93606e-08
-5.24381e-07
2.95641e-08
-5.34615e-07
2.97462e-08
-5.44891e-07
2.99039e-08
-5.55197e-07
3.00339e-08
-5.65523e-07
3.01326e-08
-5.75855e-07
3.01963e-08
-5.8618e-07
3.02213e-08
-5.96483e-07
3.02035e-08
-6.06747e-07
3.01387e-08
-6.16954e-07
3.00226e-08
-6.27084e-07
2.98508e-08
-6.37117e-07
2.96186e-08
-6.47029e-07
2.93214e-08
-6.56796e-07
2.89542e-08
-6.66393e-07
2.85124e-08
-6.75791e-07
2.79908e-08
-6.84963e-07
2.73845e-08
-6.93877e-07
2.66887e-08
-7.02501e-07
2.58983e-08
-7.10801e-07
2.50085e-08
-7.18742e-07
2.40146e-08
-7.26287e-07
2.29121e-08
-7.33398e-07
2.16967e-08
-7.40036e-07
2.03642e-08
-7.46161e-07
1.8911e-08
-7.51732e-07
1.73338e-08
-7.56705e-07
1.56296e-08
-7.61039e-07
1.37962e-08
-7.6469e-07
1.18318e-08
-7.67615e-07
9.73544e-09
-7.69771e-07
7.50685e-09
-7.71115e-07
5.14659e-09
-7.71605e-07
2.65617e-09
-7.71199e-07
3.81048e-11
-7.69858e-07
-2.70403e-09
-7.67543e-07
-5.56546e-09
-7.6422e-07
-8.5402e-09
-7.59853e-07
-1.1621e-08
-7.54414e-07
-1.47992e-08
-7.47875e-07
-1.80647e-08
-7.40212e-07
-2.14061e-08
-7.31409e-07
-2.48104e-08
-7.21449e-07
-2.82632e-08
-7.10326e-07
-3.17485e-08
-6.98036e-07
-3.52491e-08
-6.84583e-07
-3.8746e-08
-6.69976e-07
-4.22192e-08
-6.54233e-07
-4.56473e-08
-6.37377e-07
-4.90077e-08
-6.19441e-07
-5.2277e-08
-6.00464e-07
-5.54308e-08
-5.80495e-07
-5.84441e-08
-5.59589e-07
-6.12913e-08
-5.3781e-07
-6.39468e-08
-5.15231e-07
-6.63849e-08
-4.91933e-07
-6.85804e-08
-4.68004e-07
-7.05084e-08
-4.4354e-07
-7.21453e-08
-4.18644e-07
-7.34684e-08
-3.93427e-07
-7.44565e-08
-3.68005e-07
-7.50907e-08
-3.42498e-07
-7.53536e-08
-3.17034e-07
-7.52308e-08
-2.91743e-07
-7.47103e-08
-2.66757e-07
-7.37831e-08
-2.4221e-07
-7.24436e-08
-2.18238e-07
-7.06894e-08
-1.94976e-07
-6.85219e-08
-1.72555e-07
-6.59464e-08
-1.51105e-07
-6.29721e-08
-1.3075e-07
-5.96128e-08
-1.11608e-07
-5.58865e-08
-9.37895e-08
-5.18166e-08
-7.73928e-08
-4.74321e-08
-6.25055e-08
-4.27686e-08
-4.91996e-08
-3.78693e-08
-3.75292e-08
-3.27876e-08
-2.75266e-08
-2.7589e-08
-1.91981e-08
-2.23557e-08
-1.25189e-08
-1.71915e-08
-7.42669e-09
-1.22295e-08
-3.81485e-09
-7.64223e-09
-1.52431e-09
-3.6553e-09
-3.35009e-10
-5.61663e-10
4.4674e-11
1.25878e-09
1.27515e-09
3.10475e-11
-6.40616e-10
-5.44723e-11
-9.05174e-10
-3.90908e-10
-4.22091e-10
-1.07897e-09
6.0909e-10
-2.19368e-09
2.03552e-09
-3.78838e-09
3.73287e-09
-5.89802e-09
5.6012e-09
-8.54198e-09
7.56163e-09
-1.17267e-08
9.55268e-09
-1.54481e-08
1.15271e-08
-1.96934e-08
1.34494e-08
-2.44437e-08
1.52932e-08
-2.96747e-08
1.70401e-08
-3.53589e-08
1.86777e-08
-4.14664e-08
2.01984e-08
-4.79659e-08
2.15987e-08
-5.48258e-08
2.28779e-08
-6.20144e-08
2.40379e-08
-6.9501e-08
2.50826e-08
-7.72556e-08
2.6017e-08
-8.525e-08
2.68472e-08
-9.34575e-08
2.75801e-08
-1.01853e-07
2.82231e-08
-1.10414e-07
2.87836e-08
-1.19119e-07
2.92693e-08
-1.27949e-07
2.96877e-08
-1.36887e-07
3.00462e-08
-1.45917e-07
3.0352e-08
-1.55027e-07
3.06119e-08
-1.64205e-07
3.08323e-08
-1.73441e-07
3.10193e-08
-1.82727e-07
3.11787e-08
-1.92055e-07
3.13155e-08
-2.0142e-07
3.14347e-08
-2.10818e-07
3.15406e-08
-2.20246e-07
3.16373e-08
-2.29702e-07
3.17283e-08
-2.39183e-07
3.18171e-08
-2.48691e-07
3.19063e-08
-2.58226e-07
3.19987e-08
-2.67788e-07
3.20964e-08
-2.77379e-07
3.22016e-08
-2.87001e-07
3.23158e-08
-2.96658e-07
3.24406e-08
-3.06351e-07
3.25772e-08
-3.16085e-07
3.27267e-08
-3.25863e-07
3.28899e-08
-3.35688e-07
3.30674e-08
-3.45565e-07
3.32598e-08
-3.55497e-07
3.34673e-08
-3.65489e-07
3.36902e-08
-3.75545e-07
3.39285e-08
-3.85668e-07
3.4182e-08
-3.95862e-07
3.44506e-08
-4.06132e-07
3.47338e-08
-4.16481e-07
3.5031e-08
-4.26913e-07
3.53418e-08
-4.3743e-07
3.56651e-08
-4.48036e-07
3.60002e-08
-4.58733e-07
3.63459e-08
-4.69523e-07
3.67011e-08
-4.80409e-07
3.70642e-08
-4.91391e-07
3.74338e-08
-5.02471e-07
3.78081e-08
-5.13648e-07
3.81854e-08
-5.24922e-07
3.85634e-08
-5.36292e-07
3.89401e-08
-5.47757e-07
3.93128e-08
-5.59314e-07
3.96791e-08
-5.70959e-07
4.0036e-08
-5.82687e-07
4.03805e-08
-5.94495e-07
4.07093e-08
-6.06375e-07
4.1019e-08
-6.1832e-07
4.13058e-08
-6.30322e-07
4.15657e-08
-6.4237e-07
4.17946e-08
-6.54454e-07
4.1988e-08
-6.66562e-07
4.21413e-08
-6.78679e-07
4.22495e-08
-6.9079e-07
4.23076e-08
-7.02879e-07
4.23102e-08
-7.14927e-07
4.22516e-08
-7.26914e-07
4.21261e-08
-7.3882e-07
4.19277e-08
-7.50619e-07
4.16503e-08
-7.62288e-07
4.12873e-08
-7.73799e-07
4.08325e-08
-7.85124e-07
4.02791e-08
-7.96232e-07
3.96205e-08
-8.07091e-07
3.88499e-08
-8.17667e-07
3.79605e-08
-8.27924e-07
3.69456e-08
-8.37824e-07
3.57986e-08
-8.47328e-07
3.45129e-08
-8.56396e-07
3.30821e-08
-8.64984e-07
3.15002e-08
-8.73049e-07
2.97615e-08
-8.80545e-07
2.78604e-08
-8.87426e-07
2.57923e-08
-8.93645e-07
2.35527e-08
-8.99153e-07
2.11379e-08
-9.03902e-07
1.85452e-08
-9.07843e-07
1.57724e-08
-9.10926e-07
1.28184e-08
-9.13102e-07
9.68326e-09
-9.14324e-07
6.36805e-09
-9.14543e-07
2.87519e-09
-9.13713e-07
-7.91519e-10
-9.1179e-07
-4.62681e-09
-9.08732e-07
-8.6238e-09
-9.04498e-07
-1.2774e-08
-8.99052e-07
-1.7067e-08
-8.92361e-07
-2.14908e-08
-8.84394e-07
-2.60312e-08
-8.75128e-07
-3.06723e-08
-8.64542e-07
-3.53961e-08
-8.52623e-07
-4.01827e-08
-8.39361e-07
-4.501e-08
-8.24756e-07
-4.98542e-08
-8.08813e-07
-5.46895e-08
-7.91544e-07
-5.94883e-08
-7.72969e-07
-6.42213e-08
-7.53119e-07
-6.88578e-08
-7.32031e-07
-7.33657e-08
-7.0975e-07
-7.77117e-08
-6.86332e-07
-8.18617e-08
-6.61842e-07
-8.57811e-08
-6.36354e-07
-8.94348e-08
-6.09951e-07
-9.27882e-08
-5.82725e-07
-9.58066e-08
-5.54777e-07
-9.84566e-08
-5.26216e-07
-1.00706e-07
-4.97161e-07
-1.02524e-07
-4.67736e-07
-1.03881e-07
-4.38074e-07
-1.04753e-07
-4.08313e-07
-1.05115e-07
-3.78596e-07
-1.04948e-07
-3.49071e-07
-1.04235e-07
-3.19888e-07
-1.02966e-07
-2.91201e-07
-1.01131e-07
-2.63162e-07
-9.8728e-08
-2.35925e-07
-9.57595e-08
-2.09638e-07
-9.22327e-08
-1.8445e-07
-8.81609e-08
-1.60499e-07
-8.35634e-08
-1.3792e-07
-7.84659e-08
-1.16835e-07
-7.29012e-08
-9.73569e-08
-6.69101e-08
-7.95831e-08
-6.05423e-08
-6.35942e-08
-5.38582e-08
-4.94509e-08
-4.6931e-08
-3.719e-08
-3.98499e-08
-2.6821e-08
-3.27247e-08
-1.83211e-08
-2.56913e-08
-1.16309e-08
-1.89197e-08
-6.64849e-09
-1.26246e-08
-3.22492e-09
-7.07886e-09
-1.15883e-09
-2.62776e-09
-1.91623e-10
2.9157e-10
1.08353e-09
-4.65224e-11
-5.94107e-10
-3.32229e-10
-6.19465e-10
-9.72263e-10
2.1794e-10
-2.05509e-09
1.69193e-09
-3.64705e-09
3.62749e-09
-5.79516e-09
5.88098e-09
-8.52961e-09
8.33564e-09
-1.18661e-08
1.08981e-08
-1.58082e-08
1.34947e-08
-2.03491e-08
1.6068e-08
-2.54737e-08
1.8574e-08
-3.11606e-08
2.09801e-08
-3.7383e-08
2.32626e-08
-4.41108e-08
2.54056e-08
-5.13114e-08
2.7399e-08
-5.89505e-08
2.92378e-08
-6.69936e-08
3.09209e-08
-7.54059e-08
3.24502e-08
-8.41535e-08
3.38302e-08
-9.32037e-08
3.50671e-08
-1.02525e-07
3.61685e-08
-1.12088e-07
3.7143e-08
-1.21864e-07
3.79998e-08
-1.31829e-07
3.87484e-08
-1.41959e-07
3.93987e-08
-1.52231e-07
3.99603e-08
-1.62628e-07
4.04427e-08
-1.73131e-07
4.08552e-08
-1.83726e-07
4.12066e-08
-1.94399e-07
4.15053e-08
-2.05139e-07
4.17592e-08
-2.15936e-07
4.19757e-08
-2.26782e-07
4.21617e-08
-2.37671e-07
4.23235e-08
-2.48597e-07
4.2467e-08
-2.59557e-07
4.25974e-08
-2.70548e-07
4.27194e-08
-2.81569e-07
4.28375e-08
-2.92618e-07
4.29555e-08
-3.03696e-07
4.30768e-08
-3.14804e-07
4.32045e-08
-3.25944e-07
4.33411e-08
-3.37117e-07
4.34891e-08
-3.48327e-07
4.36503e-08
-3.59576e-07
4.38265e-08
-3.70869e-07
4.40191e-08
-3.82208e-07
4.42291e-08
-3.93598e-07
4.44576e-08
-4.05043e-07
4.4705e-08
-4.16548e-07
4.49719e-08
-4.28116e-07
4.52586e-08
-4.39753e-07
4.5565e-08
-4.51462e-07
4.58909e-08
-4.63247e-07
4.62361e-08
-4.75113e-07
4.66e-08
-4.87064e-07
4.69819e-08
-4.99104e-07
4.7381e-08
-5.11234e-07
4.7796e-08
-5.2346e-07
4.82257e-08
-5.35783e-07
4.86687e-08
-5.48205e-07
4.91233e-08
-5.60728e-07
4.95876e-08
-5.73354e-07
5.00595e-08
-5.86083e-07
5.05367e-08
-5.98914e-07
5.10167e-08
-6.11847e-07
5.14966e-08
-6.2488e-07
5.19735e-08
-6.38012e-07
5.2444e-08
-6.51237e-07
5.29046e-08
-6.64553e-07
5.33516e-08
-6.77953e-07
5.37808e-08
-6.91432e-07
5.41878e-08
-7.0498e-07
5.4568e-08
-7.18591e-07
5.49163e-08
-7.32253e-07
5.52276e-08
-7.45955e-07
5.54963e-08
-7.59683e-07
5.57165e-08
-7.73424e-07
5.58819e-08
-7.87161e-07
5.59862e-08
-8.00876e-07
5.60226e-08
-8.14549e-07
5.5984e-08
-8.28161e-07
5.5863e-08
-8.41687e-07
5.5652e-08
-8.55102e-07
5.53433e-08
-8.68381e-07
5.49286e-08
-8.81493e-07
5.43998e-08
-8.94409e-07
5.37484e-08
-9.07096e-07
5.29658e-08
-9.19519e-07
5.20433e-08
-9.31641e-07
5.09722e-08
-9.43424e-07
4.97438e-08
-9.54828e-07
4.83494e-08
-9.6581e-07
4.67805e-08
-9.76326e-07
4.50288e-08
-9.8633e-07
4.30862e-08
-9.95775e-07
4.09449e-08
-1.00461e-06
3.85978e-08
-1.01279e-06
3.6038e-08
-1.02026e-06
3.32597e-08
-1.02696e-06
3.02574e-08
-1.03285e-06
2.70267e-08
-1.03787e-06
2.35642e-08
-1.04196e-06
1.98677e-08
-1.04508e-06
1.5936e-08
-1.04717e-06
1.17696e-08
-1.04817e-06
7.37032e-09
-1.04804e-06
2.7417e-09
-1.04672e-06
-2.11093e-09
-1.04416e-06
-7.1803e-09
-1.04033e-06
-1.24571e-08
-1.03517e-06
-1.79299e-08
-1.02866e-06
-2.3585e-08
-1.02074e-06
-2.94063e-08
-1.0114e-06
-3.53752e-08
-1.0006e-06
-4.14707e-08
-9.88325e-07
-4.76694e-08
-9.74563e-07
-5.39452e-08
-9.59303e-07
-6.02693e-08
-9.42547e-07
-6.66109e-08
-9.243e-07
-7.29364e-08
-9.04578e-07
-7.921e-08
-8.83406e-07
-8.5394e-08
-8.60815e-07
-9.14485e-08
-8.36849e-07
-9.7332e-08
-8.11558e-07
-1.03002e-07
-7.85006e-07
-1.08414e-07
-7.57264e-07
-1.13523e-07
-7.28413e-07
-1.18286e-07
-6.98546e-07
-1.22655e-07
-6.67764e-07
-1.26589e-07
-6.36179e-07
-1.30042e-07
-6.03911e-07
-1.32974e-07
-5.7109e-07
-1.35344e-07
-5.37854e-07
-1.37117e-07
-5.04348e-07
-1.38258e-07
-4.70725e-07
-1.38738e-07
-4.37142e-07
-1.38531e-07
-4.03761e-07
-1.37616e-07
-3.70749e-07
-1.35978e-07
-3.38273e-07
-1.33607e-07
-3.06502e-07
-1.30499e-07
-2.75604e-07
-1.26658e-07
-2.45744e-07
-1.22093e-07
-2.17083e-07
-1.16822e-07
-1.89776e-07
-1.10871e-07
-1.63968e-07
-1.04274e-07
-1.39796e-07
-9.70733e-08
-1.17382e-07
-8.93236e-08
-9.68349e-08
-8.10898e-08
-7.82427e-08
-7.24504e-08
-6.16736e-08
-6.35e-08
-4.71712e-08
-5.43524e-08
-3.47508e-08
-4.51451e-08
-2.43965e-08
-3.60456e-08
-1.60571e-08
-2.72591e-08
-9.64301e-09
-1.90387e-08
-5.02389e-09
-1.1698e-08
-2.02682e-09
-5.62483e-09
-4.36789e-10
-1.29846e-09
6.46745e-10
-1.30267e-10
-4.63828e-10
-6.35401e-10
-1.14335e-10
-1.60874e-09
1.19128e-09
-3.12337e-09
3.20656e-09
-5.2341e-09
5.73822e-09
-7.97914e-09
8.62601e-09
-1.13818e-08
1.17383e-08
-1.54525e-08
1.49688e-08
-2.01903e-08
1.82325e-08
-2.55847e-08
2.14624e-08
-3.16174e-08
2.46068e-08
-3.82641e-08
2.76267e-08
-4.54952e-08
3.04937e-08
-5.32778e-08
3.31882e-08
-6.15766e-08
3.56978e-08
-7.03547e-08
3.80159e-08
-7.95747e-08
4.01409e-08
-8.91992e-08
4.20748e-08
-9.91917e-08
4.38227e-08
-1.09517e-07
4.5392e-08
-1.2014e-07
4.67918e-08
-1.31029e-07
4.80325e-08
-1.42155e-07
4.91254e-08
-1.53489e-07
5.00821e-08
-1.65005e-07
5.09148e-08
-1.7668e-07
5.16352e-08
-1.88492e-07
5.22552e-08
-2.00423e-07
5.27863e-08
-2.12456e-07
5.32394e-08
-2.24576e-07
5.36252e-08
-2.3677e-07
5.39534e-08
-2.49028e-07
5.42333e-08
-2.6134e-07
5.44736e-08
-2.73698e-07
5.46823e-08
-2.86098e-07
5.48668e-08
-2.98534e-07
5.50336e-08
-3.11004e-07
5.51889e-08
-3.23505e-07
5.53382e-08
-3.36035e-07
5.54864e-08
-3.48596e-07
5.56378e-08
-3.61188e-07
5.57964e-08
-3.73813e-07
5.59655e-08
-3.86471e-07
5.6148e-08
-3.99168e-07
5.63467e-08
-4.11905e-07
5.65634e-08
-4.24686e-07
5.68002e-08
-4.37515e-07
5.70584e-08
-4.50397e-07
5.73392e-08
-4.63335e-07
5.76434e-08
-4.76335e-07
5.79715e-08
-4.894e-07
5.8324e-08
-5.02536e-07
5.87008e-08
-5.15747e-07
5.91017e-08