/*--------------------------------*- C++ -*----------------------------------*\
  =========                 |
  \\      /  F ield         | OpenFOAM: The Open Source CFD Toolbox
   \\    /   O peration     | Website:  https://openfoam.org
    \\  /    A nd           | Version:  7
     \\/     M anipulation  |
\*---------------------------------------------------------------------------*/
FoamFile
{
    version     2.0;
    format      ascii;
    class       volScalarField;
    location    "0.075";
    object      p;
}
// * * * * * * * * * * * * * * * * * * * * * * * * * * * * * * * * * * * * * //

dimensions      [0 2 -2 0 0 0 0];

internalField   nonuniform List<scalar> 
51200
(
-1.91831e-07
-2.28396e-05
-6.33479e-05
-0.000128642
-0.000218014
-0.000339124
-0.000495238
-0.000687997
-0.000914853
-0.00117525
-0.00146464
-0.00177693
-0.00210169
-0.00242942
-0.00275216
-0.00306396
-0.00335808
-0.00363046
-0.00387702
-0.00409658
-0.00428722
-0.00444883
-0.00457821
-0.00467602
-0.00474418
-0.0047861
-0.00480632
-0.00480618
-0.00478755
-0.00475302
-0.00470545
-0.00464932
-0.00458606
-0.00451525
-0.00443835
-0.004359
-0.0042786
-0.00419915
-0.00412106
-0.00404525
-0.00397176
-0.00390374
-0.00383873
-0.00377631
-0.00371747
-0.00366027
-0.00360744
-0.00355938
-0.00351573
-0.00347551
-0.0034387
-0.00340707
-0.00337986
-0.00335594
-0.00333544
-0.00331655
-0.00329791
-0.00328121
-0.00326762
-0.00325557
-0.00324344
-0.00323149
-0.00321995
-0.00320948
-0.00320174
-0.00319629
-0.00319062
-0.00318382
-0.00317788
-0.00317504
-0.00317611
-0.00318139
-0.00318999
-0.00319938
-0.00320714
-0.00321278
-0.0032174
-0.00322172
-0.00322582
-0.00322984
-0.00323296
-0.00323307
-0.00322836
-0.00321929
-0.00320737
-0.00319332
-0.00317763
-0.00316115
-0.00314469
-0.00312834
-0.00311185
-0.00309549
-0.00307952
-0.00306367
-0.00304756
-0.00303147
-0.00301692
-0.00300493
-0.00299541
-0.00298861
-0.00298509
-0.00298513
-0.00298882
-0.00299553
-0.00300463
-0.00301631
-0.00303053
-0.00304717
-0.00306637
-0.00308802
-0.00311157
-0.00313611
-0.00316044
-0.00318392
-0.00320677
-0.00322902
-0.00325032
-0.0032705
-0.0032899
-0.00330935
-0.0033295
-0.00335016
-0.00337077
-0.00339111
-0.00341124
-0.00343117
-0.00345118
-0.00347176
-0.00349315
-0.00351493
-0.00353605
-0.00355536
-0.00357204
-0.00358575
-0.00359622
-0.00360287
-0.00360488
-0.00360205
-0.00359508
-0.00358511
-0.00357309
-0.00355955
-0.00354492
-0.00352936
-0.0035127
-0.00349481
-0.0034755
-0.00345469
-0.00343281
-0.00341069
-0.00338924
-0.0033694
-0.00335218
-0.00333852
-0.00332917
-0.00332442
-0.00332385
-0.00332622
-0.00332919
-0.00332847
-4.87768e-05
-0.000147553
-0.000244951
-0.000353333
-0.000475269
-0.000612892
-0.000773563
-0.00095799
-0.00116792
-0.00140202
-0.00165829
-0.00193073
-0.00221306
-0.00249707
-0.00277598
-0.00304523
-0.00330233
-0.00354086
-0.00375782
-0.00395184
-0.00412189
-0.00426613
-0.00438562
-0.004478
-0.00454389
-0.00458723
-0.00461122
-0.00461938
-0.004612
-0.00458915
-0.00455419
-0.00451105
-0.00446105
-0.00440483
-0.00434333
-0.00427826
-0.00421242
-0.00414669
-0.00408124
-0.00401643
-0.00395473
-0.00389485
-0.00383808
-0.00378435
-0.00373156
-0.00368077
-0.00363245
-0.00358791
-0.00354701
-0.00350913
-0.00347454
-0.0034424
-0.00341301
-0.00338735
-0.00336459
-0.00334372
-0.00332422
-0.00330592
-0.00328945
-0.00327525
-0.00326254
-0.00325008
-0.00323711
-0.00322411
-0.00321299
-0.00320479
-0.00319889
-0.00319479
-0.00319232
-0.00319119
-0.00319158
-0.00319434
-0.00319958
-0.00320585
-0.00321173
-0.00321674
-0.00322063
-0.00322315
-0.00322456
-0.00322572
-0.0032265
-0.00322527
-0.00322055
-0.00321223
-0.00320108
-0.00318747
-0.00317218
-0.0031568
-0.0031421
-0.0031276
-0.00311289
-0.00309831
-0.0030843
-0.00307031
-0.00305579
-0.00304154
-0.00302871
-0.00301807
-0.00300977
-0.0030039
-0.00300117
-0.00300174
-0.00300492
-0.00301049
-0.00301865
-0.00302922
-0.00304202
-0.00305691
-0.00307389
-0.0030934
-0.00311525
-0.00313822
-0.00316123
-0.00318371
-0.00320543
-0.0032265
-0.00324681
-0.00326603
-0.00328467
-0.0033036
-0.00332285
-0.00334205
-0.00336112
-0.00338022
-0.00339937
-0.00341836
-0.00343692
-0.00345551
-0.00347501
-0.00349532
-0.00351518
-0.00353329
-0.0035488
-0.0035611
-0.00356994
-0.00357515
-0.00357624
-0.00357313
-0.00356669
-0.0035579
-0.00354722
-0.00353506
-0.0035222
-0.00350911
-0.00349549
-0.00348078
-0.00346449
-0.00344644
-0.00342715
-0.0034077
-0.00338898
-0.00337151
-0.00335598
-0.00334366
-0.00333533
-0.0033307
-0.00332879
-0.00332831
-0.00332768
-0.00332383
-9.75171e-05
-0.00025797
-0.000395657
-0.000538679
-0.000686263
-0.000836978
-0.000999472
-0.0011778
-0.0013742
-0.00158794
-0.00181812
-0.00205933
-0.00230749
-0.00255622
-0.00279998
-0.00303549
-0.00325979
-0.00347106
-0.00366465
-0.00383744
-0.0039885
-0.0041186
-0.00422669
-0.00431208
-0.00437601
-0.00441963
-0.00444591
-0.00445897
-0.00445967
-0.00444724
-0.00442353
-0.0043903
-0.00435112
-0.00430669
-0.00425789
-0.00420541
-0.00415197
-0.00409669
-0.0040421
-0.00398788
-0.00393472
-0.00388297
-0.00383334
-0.00378571
-0.00373881
-0.0036938
-0.00364988
-0.0036084
-0.00357022
-0.00353514
-0.00350243
-0.00347147
-0.00344235
-0.00341503
-0.00339004
-0.00336781
-0.00334727
-0.00332765
-0.00330952
-0.00329352
-0.00327989
-0.00326781
-0.0032555
-0.00324217
-0.00322903
-0.00321779
-0.00320953
-0.00320512
-0.00320404
-0.00320423
-0.00320477
-0.00320619
-0.00320856
-0.0032113
-0.00321438
-0.00321795
-0.00322103
-0.00322264
-0.00322299
-0.0032228
-0.00322188
-0.00321917
-0.00321411
-0.00320644
-0.00319593
-0.00318277
-0.00316809
-0.0031537
-0.00314025
-0.00312702
-0.00311376
-0.00310075
-0.00308802
-0.00307513
-0.00306168
-0.00304875
-0.00303742
-0.0030277
-0.00302007
-0.0030152
-0.00301326
-0.00301424
-0.00301727
-0.00302192
-0.00302903
-0.00303877
-0.00305046
-0.00306407
-0.00307983
-0.00309797
-0.00311851
-0.00314037
-0.00316234
-0.00318412
-0.00320532
-0.00322539
-0.00324439
-0.00326262
-0.00328055
-0.00329883
-0.00331735
-0.00333537
-0.00335295
-0.00337081
-0.00338901
-0.00340698
-0.0034245
-0.00344204
-0.00346025
-0.00347919
-0.00349796
-0.00351517
-0.0035298
-0.00354131
-0.0035493
-0.0035533
-0.00355325
-0.00354982
-0.00354384
-0.00353582
-0.00352609
-0.00351515
-0.00350368
-0.00349223
-0.00348075
-0.00346839
-0.00345414
-0.00343788
-0.00342054
-0.00340318
-0.00338633
-0.00337038
-0.00335636
-0.00334535
-0.00333772
-0.00333311
-0.0033304
-0.00332821
-0.00332525
-0.00331934
-0.000165491
-0.000373074
-0.000546689
-0.000717977
-0.000883846
-0.00104413
-0.00120487
-0.00137505
-0.00155776
-0.00175406
-0.00196079
-0.00217588
-0.00239483
-0.0026126
-0.00282498
-0.00302986
-0.00322588
-0.00341042
-0.00358225
-0.0037368
-0.00387166
-0.00398739
-0.00408543
-0.00416467
-0.00422416
-0.00426634
-0.00429435
-0.00431001
-0.00431638
-0.00431278
-0.00429779
-0.00427448
-0.00424553
-0.0042113
-0.00417291
-0.00413241
-0.00408859
-0.00404443
-0.00399906
-0.00395439
-0.00390975
-0.0038659
-0.00382342
-0.00378047
-0.00373964
-0.00369975
-0.00366019
-0.0036229
-0.0035875
-0.00355412
-0.00352362
-0.00349502
-0.00346716
-0.0034402
-0.00341467
-0.00339084
-0.00336906
-0.00334904
-0.00332999
-0.00331221
-0.0032969
-0.00328377
-0.00327153
-0.00325951
-0.00324731
-0.00323517
-0.00322474
-0.00321804
-0.00321521
-0.00321458
-0.0032151
-0.00321629
-0.00321713
-0.00321735
-0.00321773
-0.00321876
-0.00321985
-0.00322041
-0.00322061
-0.0032202
-0.00321836
-0.00321458
-0.00320887
-0.00320118
-0.00319109
-0.00317878
-0.00316534
-0.00315215
-0.00313966
-0.00312732
-0.00311521
-0.00310357
-0.00309174
-0.0030795
-0.00306718
-0.00305566
-0.00304586
-0.00303748
-0.00303064
-0.00302664
-0.00302564
-0.00302679
-0.0030296
-0.00303389
-0.00304013
-0.0030487
-0.00305921
-0.00307168
-0.00308672
-0.00310416
-0.00312331
-0.00314369
-0.00316469
-0.00318566
-0.00320608
-0.00322537
-0.00324325
-0.00326037
-0.00327757
-0.00329503
-0.00331252
-0.00332972
-0.00334646
-0.00336308
-0.00338
-0.0033969
-0.00341345
-0.00343036
-0.00344821
-0.00346624
-0.00348341
-0.00349926
-0.00351312
-0.00352391
-0.00353103
-0.00353428
-0.00353364
-0.00352983
-0.003524
-0.00351664
-0.00350776
-0.00349789
-0.00348801
-0.00347839
-0.00346847
-0.00345753
-0.003445
-0.00343059
-0.00341488
-0.0033991
-0.0033839
-0.00336945
-0.00335656
-0.00334637
-0.00333944
-0.00333487
-0.00333113
-0.0033275
-0.00332293
-0.00331516
-0.000255743
-0.000498227
-0.000698928
-0.000889032
-0.00106817
-0.00123187
-0.00138944
-0.00154916
-0.00171761
-0.0018977
-0.00208597
-0.0022791
-0.00247386
-0.00266605
-0.00285305
-0.00303244
-0.00320414
-0.00336558
-0.0035176
-0.00365505
-0.00377681
-0.00388143
-0.00396987
-0.00404264
-0.00409938
-0.00414068
-0.00416773
-0.00418503
-0.00419467
-0.00419624
-0.00418876
-0.00417472
-0.00415314
-0.00412756
-0.00409808
-0.00406553
-0.00403123
-0.00399521
-0.00395833
-0.00392107
-0.00388376
-0.00384748
-0.00381028
-0.00377339
-0.00373758
-0.00370112
-0.00366672
-0.00363347
-0.00360072
-0.00356989
-0.00354074
-0.00351286
-0.00348636
-0.0034608
-0.00343549
-0.00341107
-0.00338861
-0.00336797
-0.00334875
-0.00333111
-0.00331489
-0.00329969
-0.00328585
-0.00327359
-0.00326193
-0.00325054
-0.00324048
-0.00323264
-0.00322732
-0.00322437
-0.00322343
-0.00322344
-0.00322299
-0.00322208
-0.00322122
-0.00322024
-0.00321907
-0.00321812
-0.00321775
-0.00321704
-0.00321475
-0.0032107
-0.00320489
-0.0031969
-0.00318676
-0.00317532
-0.00316346
-0.00315156
-0.00313988
-0.00312848
-0.00311745
-0.00310678
-0.00309567
-0.00308403
-0.00307296
-0.00306303
-0.0030544
-0.00304733
-0.00304204
-0.00303901
-0.00303845
-0.00303963
-0.00304214
-0.00304633
-0.00305214
-0.0030594
-0.00306857
-0.00308011
-0.00309426
-0.00311087
-0.00312898
-0.00314786
-0.00316762
-0.00318765
-0.00320679
-0.00322479
-0.00324185
-0.00325815
-0.00327431
-0.00329075
-0.00330712
-0.00332333
-0.00333966
-0.00335591
-0.00337168
-0.00338715
-0.00340287
-0.0034194
-0.00343675
-0.00345412
-0.0034704
-0.00348506
-0.00349773
-0.00350767
-0.00351405
-0.00351658
-0.00351567
-0.00351215
-0.00350668
-0.00349956
-0.00349133
-0.00348286
-0.00347473
-0.00346681
-0.0034585
-0.003449
-0.00343772
-0.0034247
-0.00341073
-0.00339653
-0.0033824
-0.00336895
-0.00335715
-0.00334788
-0.00334118
-0.00333627
-0.00333208
-0.00332754
-0.00332169
-0.00331231
-0.000377096
-0.00063729
-0.000851916
-0.0010524
-0.00123523
-0.00139688
-0.00154831
-0.0016974
-0.00185263
-0.00201708
-0.00218931
-0.00236545
-0.00254226
-0.00271584
-0.00288323
-0.0030447
-0.0031974
-0.00334178
-0.00347599
-0.00359979
-0.00370815
-0.00380473
-0.00388746
-0.00395478
-0.00400898
-0.0040495
-0.00407657
-0.00409473
-0.00410583
-0.00410993
-0.00410788
-0.0040981
-0.0040838
-0.00406419
-0.00404103
-0.00401445
-0.00398644
-0.00395673
-0.00392593
-0.00389434
-0.00386253
-0.00383061
-0.00379861
-0.00376709
-0.00373419
-0.00370179
-0.00367079
-0.00364009
-0.00361097
-0.00358298
-0.00355499
-0.00352787
-0.00350197
-0.00347685
-0.00345224
-0.0034283
-0.00340522
-0.00338345
-0.00336395
-0.00334677
-0.00333063
-0.00331498
-0.00330009
-0.00328606
-0.00327302
-0.00326165
-0.00325228
-0.00324441
-0.00323812
-0.00323386
-0.00323104
-0.00322876
-0.00322663
-0.00322486
-0.00322321
-0.00322106
-0.00321875
-0.00321685
-0.00321526
-0.00321341
-0.00321068
-0.00320677
-0.00320109
-0.00319301
-0.00318311
-0.00317258
-0.00316192
-0.00315108
-0.00314037
-0.00313019
-0.00312019
-0.00310997
-0.00309957
-0.00308913
-0.00307929
-0.00307074
-0.00306332
-0.00305735
-0.00305359
-0.00305175
-0.00305136
-0.0030524
-0.00305472
-0.00305852
-0.0030639
-0.00307035
-0.00307834
-0.003089
-0.00310227
-0.00311754
-0.00313439
-0.00315224
-0.0031707
-0.00318932
-0.00320703
-0.00322341
-0.00323923
-0.00325496
-0.00327032
-0.00328538
-0.00330064
-0.00331625
-0.00333197
-0.00334769
-0.00336315
-0.003378
-0.00339278
-0.00340868
-0.00342563
-0.00344222
-0.00345766
-0.00347183
-0.00348393
-0.0034928
-0.00349819
-0.00350036
-0.00349952
-0.00349629
-0.00349139
-0.00348494
-0.00347739
-0.0034701
-0.00346385
-0.00345785
-0.00345094
-0.00344258
-0.00343262
-0.00342103
-0.00340822
-0.00339489
-0.00338172
-0.0033692
-0.00335808
-0.00334921
-0.00334268
-0.00333769
-0.00333326
-0.00332846
-0.00332202
-0.00331149
-0.000532468
-0.000797677
-0.00101445
-0.00121417
-0.00139442
-0.0015498
-0.00169079
-0.00182922
-0.00197152
-0.00212168
-0.00227874
-0.00244048
-0.00260276
-0.00276164
-0.00291571
-0.00306354
-0.00320261
-0.00333402
-0.0034556
-0.00356718
-0.00366638
-0.00375377
-0.00383008
-0.00389459
-0.00394669
-0.00398588
-0.00401446
-0.00403239
-0.00404442
-0.00405032
-0.00405005
-0.00404421
-0.0040337
-0.0040186
-0.00399935
-0.00397798
-0.00395391
-0.00392836
-0.00390228
-0.00387455
-0.00384638
-0.00381775
-0.00378955
-0.00376095
-0.00373141
-0.00370263
-0.00367337
-0.00364505
-0.00361847
-0.0035922
-0.00356634
-0.00354083
-0.00351529
-0.00349035
-0.00346646
-0.0034431
-0.00341997
-0.00339776
-0.00337746
-0.00335924
-0.00334264
-0.00332725
-0.00331236
-0.00329745
-0.00328328
-0.00327107
-0.00326099
-0.00325262
-0.00324612
-0.00324142
-0.00323744
-0.00323356
-0.00323008
-0.00322708
-0.00322415
-0.00322102
-0.00321821
-0.00321585
-0.00321317
-0.00321011
-0.00320683
-0.00320271
-0.0031969
-0.00318901
-0.00317985
-0.00317035
-0.00316059
-0.0031507
-0.00314117
-0.00313216
-0.00312316
-0.00311344
-0.00310362
-0.00309462
-0.00308632
-0.00307884
-0.00307262
-0.00306788
-0.00306513
-0.00306417
-0.00306407
-0.00306497
-0.00306727
-0.00307068
-0.00307513
-0.00308092
-0.00308844
-0.00309833
-0.00311064
-0.00312463
-0.00313993
-0.00315662
-0.00317401
-0.00319089
-0.00320671
-0.00322176
-0.00323635
-0.00325077
-0.00326525
-0.0032796
-0.00329392
-0.00330882
-0.0033242
-0.00333934
-0.00335408
-0.00336874
-0.00338355
-0.00339891
-0.00341489
-0.00343073
-0.0034457
-0.00345944
-0.00347104
-0.00347936
-0.00348412
-0.00348587
-0.00348513
-0.0034824
-0.00347804
-0.00347227
-0.00346585
-0.00346015
-0.00345556
-0.00345107
-0.00344556
-0.00343852
-0.00342968
-0.0034191
-0.00340721
-0.00339456
-0.00338179
-0.00336969
-0.00335921
-0.00335076
-0.00334423
-0.00333911
-0.00333476
-0.00333034
-0.00332387
-0.00331279
-0.000722762
-0.000979739
-0.00119074
-0.00138298
-0.00155344
-0.00169828
-0.00182849
-0.00195381
-0.00208464
-0.00222155
-0.00236349
-0.00251069
-0.00265931
-0.00280603
-0.00294744
-0.00308444
-0.00321399
-0.00333496
-0.00344867
-0.00355075
-0.0036424
-0.00372277
-0.00379336
-0.00385296
-0.00390219
-0.00394185
-0.00396966
-0.0039891
-0.00400134
-0.00400858
-0.00400951
-0.0040065
-0.00399798
-0.00398541
-0.00397017
-0.00395167
-0.0039307
-0.00390881
-0.00388509
-0.00386046
-0.00383512
-0.00380885
-0.00378277
-0.00375621
-0.00372958
-0.00370279
-0.00367606
-0.00365029
-0.00362459
-0.00359947
-0.00357551
-0.00355144
-0.00352692
-0.00350267
-0.00347903
-0.00345586
-0.00343318
-0.0034114
-0.00339072
-0.00337115
-0.00335323
-0.00333704
-0.00332162
-0.0033065
-0.0032924
-0.0032798
-0.00326869
-0.00325949
-0.00325259
-0.00324727
-0.00324235
-0.00323775
-0.00323375
-0.00322972
-0.00322534
-0.00322121
-0.00321775
-0.0032146
-0.00321103
-0.00320724
-0.00320352
-0.00319892
-0.00319263
-0.00318495
-0.00317674
-0.00316832
-0.00315933
-0.00315038
-0.00314227
-0.0031344
-0.00312602
-0.00311714
-0.00310835
-0.00310055
-0.00309359
-0.00308719
-0.00308211
-0.00307875
-0.00307673
-0.0030759
-0.00307615
-0.0030773
-0.00307949
-0.00308257
-0.00308626
-0.00309125
-0.00309852
-0.00310794
-0.00311906
-0.0031319
-0.00314616
-0.00316139
-0.00317719
-0.00319251
-0.00320654
-0.00321994
-0.00323346
-0.00324677
-0.00325974
-0.0032731
-0.0032873
-0.00330201
-0.0033167
-0.00333117
-0.00334553
-0.00335989
-0.00337446
-0.00338957
-0.00340499
-0.00342007
-0.00343458
-0.00344813
-0.00345932
-0.00346706
-0.00347157
-0.00347343
-0.00347286
-0.00347035
-0.00346654
-0.00346169
-0.00345653
-0.00345242
-0.00344956
-0.00344653
-0.00344212
-0.00343611
-0.00342838
-0.00341872
-0.00340733
-0.00339494
-0.00338238
-0.00337068
-0.00336055
-0.00335239
-0.00334593
-0.0033409
-0.00333689
-0.00333294
-0.00332674
-0.00331574
-0.000945303
-0.00118521
-0.00138222
-0.00156092
-0.0017181
-0.00185025
-0.00196737
-0.00208088
-0.00219881
-0.0023231
-0.00245219
-0.00258367
-0.00271837
-0.00285186
-0.00298182
-0.00310714
-0.00322629
-0.00333877
-0.00344546
-0.00354228
-0.00362758
-0.00370337
-0.00376804
-0.0038235
-0.00387009
-0.00390821
-0.00393639
-0.00395633
-0.0039692
-0.0039764
-0.00397987
-0.00397796
-0.00397144
-0.00396139
-0.00394799
-0.00393194
-0.00391422
-0.00389423
-0.00387258
-0.00385065
-0.00382683
-0.00380266
-0.0037782
-0.00375296
-0.00372801
-0.00370269
-0.00367841
-0.00365461
-0.00363029
-0.00360662
-0.00358352
-0.00356041
-0.00353746
-0.00351429
-0.0034909
-0.00346782
-0.00344533
-0.00342369
-0.0034029
-0.00338288
-0.003364
-0.00334642
-0.00332979
-0.00331421
-0.00330013
-0.0032874
-0.00327597
-0.0032665
-0.00325912
-0.00325286
-0.0032471
-0.003242
-0.00323744
-0.00323259
-0.00322731
-0.00322235
-0.00321788
-0.00321344
-0.00320897
-0.00320476
-0.00320055
-0.00319532
-0.0031887
-0.00318138
-0.00317383
-0.0031661
-0.0031581
-0.00315031
-0.00314333
-0.00313642
-0.00312871
-0.00312083
-0.00311354
-0.00310682
-0.00310073
-0.00309553
-0.00309161
-0.00308924
-0.00308794
-0.0030872
-0.0030875
-0.00308901
-0.00309114
-0.00309371
-0.00309708
-0.00310172
-0.00310842
-0.00311728
-0.00312756
-0.00313916
-0.00315242
-0.00316663
-0.00318062
-0.00319387
-0.00320649
-0.00321876
-0.00323084
-0.00324282
-0.00325483
-0.00326728
-0.00328081
-0.00329534
-0.00330984
-0.00332375
-0.00333762
-0.00335181
-0.00336612
-0.00338067
-0.00339556
-0.0034104
-0.00342478
-0.00343806
-0.00344881
-0.00345617
-0.00346065
-0.00346281
-0.00346262
-0.00346041
-0.003457
-0.00345302
-0.00344925
-0.0034467
-0.00344521
-0.00344336
-0.00344009
-0.00343515
-0.00342824
-0.00341901
-0.00340796
-0.00339587
-0.00338359
-0.00337217
-0.00336229
-0.00335421
-0.00334795
-0.00334321
-0.00333961
-0.00333617
-0.00333034
-0.00331978
-0.00119833
-0.00141263
-0.00158912
-0.00174919
-0.00188983
-0.00200747
-0.00211081
-0.00221146
-0.00231593
-0.00242805
-0.00254426
-0.00266293
-0.00278369
-0.00290313
-0.00302128
-0.00313421
-0.0032428
-0.00334596
-0.00344402
-0.0035356
-0.00361704
-0.00368817
-0.00375008
-0.00380169
-0.00384573
-0.00388137
-0.00391008
-0.00392949
-0.00394282
-0.00395123
-0.00395491
-0.00395461
-0.00395059
-0.00394189
-0.00393011
-0.00391668
-0.00390064
-0.00388222
-0.00386326
-0.00384236
-0.00382021
-0.00379776
-0.00377426
-0.00375072
-0.00372682
-0.00370274
-0.00367988
-0.0036575
-0.00363523
-0.00361303
-0.00359065
-0.00356856
-0.00354682
-0.00352473
-0.00350222
-0.00347969
-0.00345722
-0.00343511
-0.00341384
-0.00339359
-0.00337433
-0.00335587
-0.00333836
-0.00332226
-0.00330775
-0.00329472
-0.00328334
-0.00327394
-0.0032662
-0.0032592
-0.00325284
-0.00324713
-0.00324153
-0.00323577
-0.00322993
-0.00322422
-0.0032186
-0.00321293
-0.00320757
-0.00320274
-0.00319782
-0.00319197
-0.00318524
-0.00317827
-0.0031712
-0.00316389
-0.00315679
-0.00315028
-0.00314418
-0.00313791
-0.00313112
-0.00312436
-0.00311843
-0.00311295
-0.00310763
-0.00310341
-0.00310073
-0.00309906
-0.0030981
-0.00309783
-0.00309837
-0.00309988
-0.00310188
-0.00310406
-0.00310715
-0.00311185
-0.00311818
-0.00312603
-0.00313549
-0.00314652
-0.0031587
-0.00317148
-0.00318407
-0.00319573
-0.00320669
-0.0032177
-0.00322874
-0.00323951
-0.00325047
-0.00326235
-0.00327544
-0.00328932
-0.00330321
-0.00331685
-0.00333065
-0.00334462
-0.00335847
-0.00337247
-0.00338701
-0.00340179
-0.00341621
-0.0034293
-0.00343965
-0.00344681
-0.00345148
-0.00345399
-0.00345413
-0.00345228
-0.0034494
-0.00344628
-0.00344369
-0.0034424
-0.00344201
-0.0034411
-0.00343883
-0.00343498
-0.00342883
-0.00341983
-0.00340879
-0.00339696
-0.00338531
-0.0033743
-0.00336464
-0.00335664
-0.00335039
-0.00334594
-0.00334291
-0.00333993
-0.0033344
-0.00332456
-0.00147655
-0.00165862
-0.0018098
-0.00194657
-0.00206744
-0.0021689
-0.00225797
-0.00234405
-0.00243616
-0.00253435
-0.00263772
-0.00274394
-0.002851
-0.00295925
-0.00306537
-0.00316728
-0.00326473
-0.00335814
-0.00344748
-0.00353107
-0.00360767
-0.00367558
-0.00373478
-0.00378399
-0.00382507
-0.00385968
-0.00388626
-0.00390635
-0.00392028
-0.00392877
-0.00393324
-0.00393447
-0.00393148
-0.00392469
-0.0039153
-0.00390305
-0.00388832
-0.00387231
-0.00385469
-0.00383473
-0.00381455
-0.00379296
-0.00377036
-0.00374835
-0.00372558
-0.00370301
-0.00368101
-0.00365967
-0.00363912
-0.00361819
-0.00359697
-0.00357602
-0.00355506
-0.00353386
-0.00351242
-0.00349079
-0.00346871
-0.0034463
-0.00342457
-0.00340391
-0.00338409
-0.00336521
-0.00334757
-0.00333127
-0.00331627
-0.00330301
-0.00329182
-0.00328231
-0.00327402
-0.00326654
-0.00325972
-0.00325324
-0.00324643
-0.00323964
-0.00323319
-0.00322655
-0.00321973
-0.0032132
-0.00320717
-0.0032015
-0.00319559
-0.00318919
-0.00318254
-0.00317572
-0.00316882
-0.00316199
-0.00315564
-0.00315009
-0.00314472
-0.00313895
-0.0031332
-0.00312781
-0.00312282
-0.00311825
-0.00311413
-0.00311097
-0.00310911
-0.00310801
-0.00310738
-0.00310761
-0.0031087
-0.00311011
-0.00311168
-0.0031138
-0.00311687
-0.00312129
-0.00312722
-0.00313442
-0.00314301
-0.00315334
-0.0031648
-0.0031763
-0.00318732
-0.00319776
-0.0032077
-0.00321739
-0.00322696
-0.00323664
-0.00324699
-0.0032584
-0.00327089
-0.00328405
-0.00329728
-0.00331061
-0.00332433
-0.00333809
-0.00335149
-0.00336511
-0.00337951
-0.00339429
-0.00340867
-0.00342161
-0.00343178
-0.00343892
-0.00344391
-0.00344685
-0.00344728
-0.00344569
-0.00344338
-0.00344119
-0.00343965
-0.00343923
-0.00343957
-0.00343949
-0.00343823
-0.00343533
-0.00342979
-0.00342102
-0.00340998
-0.00339844
-0.00338737
-0.00337706
-0.0033677
-0.00335969
-0.00335351
-0.00334941
-0.00334679
-0.00334407
-0.00333882
-0.00332985
-0.00177334
-0.00191639
-0.00203761
-0.0021498
-0.00224957
-0.00233324
-0.00240833
-0.00248034
-0.00255728
-0.00264228
-0.00273202
-0.00282373
-0.00291916
-0.00301431
-0.00310929
-0.00320358
-0.00329073
-0.00337452
-0.00345493
-0.00353038
-0.00359987
-0.00366453
-0.00372001
-0.00376806
-0.00380763
-0.00383967
-0.00386525
-0.0038852
-0.00389921
-0.00390846
-0.00391387
-0.00391547
-0.0039138
-0.00390897
-0.00390095
-0.00389031
-0.00387742
-0.00386281
-0.00384595
-0.00382816
-0.00380896
-0.00378799
-0.00376685
-0.00374542
-0.00372391
-0.00370292
-0.00368196
-0.00366175
-0.00364216
-0.00362224
-0.00360231
-0.0035825
-0.00356246
-0.0035421
-0.00352139
-0.00350041
-0.00347892
-0.0034569
-0.00343523
-0.00341433
-0.00339411
-0.00337507
-0.00335752
-0.00334116
-0.00332604
-0.00331287
-0.00330179
-0.00329186
-0.0032829
-0.00327497
-0.00326742
-0.00325986
-0.00325214
-0.0032445
-0.00323707
-0.00322928
-0.00322143
-0.00321431
-0.00320764
-0.00320099
-0.00319428
-0.00318749
-0.00318076
-0.00317388
-0.00316695
-0.00316062
-0.00315496
-0.00314972
-0.00314479
-0.0031399
-0.00313518
-0.00313085
-0.00312676
-0.003123
-0.00312002
-0.00311803
-0.00311684
-0.00311618
-0.00311608
-0.00311679
-0.0031182
-0.00311964
-0.00312096
-0.00312297
-0.00312619
-0.00313039
-0.00313557
-0.00314209
-0.00315029
-0.00316001
-0.00317038
-0.00318067
-0.00319065
-0.00320014
-0.00320909
-0.00321764
-0.00322597
-0.00323461
-0.00324427
-0.00325511
-0.00326694
-0.00327942
-0.0032921
-0.0033051
-0.0033187
-0.00333225
-0.00334525
-0.00335856
-0.00337301
-0.0033879
-0.00340206
-0.0034146
-0.00342473
-0.0034323
-0.00343778
-0.00344099
-0.00344162
-0.0034405
-0.00343889
-0.00343743
-0.0034366
-0.00343693
-0.00343799
-0.00343864
-0.00343819
-0.00343612
-0.00343122
-0.00342268
-0.00341167
-0.00340053
-0.00339015
-0.00338034
-0.00337121
-0.00336343
-0.00335749
-0.00335361
-0.00335121
-0.00334864
-0.00334361
-0.00333551
-0.00207913
-0.00218029
-0.00226872
-0.00235362
-0.00243158
-0.00249826
-0.00255853
-0.00261758
-0.00268104
-0.00275239
-0.00282759
-0.00290614
-0.00298535
-0.00306946
-0.00315449
-0.00323751
-0.00331854
-0.00339476
-0.00346609
-0.00353371
-0.00359733
-0.00365547
-0.00370873
-0.00375425
-0.00379178
-0.0038227
-0.00384753
-0.00386614
-0.00388032
-0.0038903
-0.00389589
-0.00389824
-0.0038976
-0.00389372
-0.00388698
-0.00387801
-0.00386667
-0.00385299
-0.00383768
-0.00382131
-0.00380269
-0.00378322
-0.00376318
-0.00374201
-0.00372181
-0.00370204
-0.00368238
-0.00366336
-0.0036443
-0.00362528
-0.00360644
-0.00358751
-0.00356851
-0.00354918
-0.0035292
-0.00350871
-0.00348766
-0.00346627
-0.0034452
-0.00342457
-0.00340452
-0.00338577
-0.00336839
-0.00335204
-0.00333718
-0.00332425
-0.00331294
-0.00330249
-0.00329285
-0.00328416
-0.00327558
-0.00326682
-0.00325834
-0.00325001
-0.00324145
-0.00323258
-0.00322396
-0.00321624
-0.0032088
-0.00320118
-0.00319391
-0.00318692
-0.00317984
-0.00317274
-0.00316592
-0.00315986
-0.00315455
-0.0031495
-0.00314476
-0.00314067
-0.00313707
-0.0031335
-0.0031301
-0.00312734
-0.00312547
-0.00312439
-0.00312377
-0.00312363
-0.00312423
-0.00312546
-0.00312686
-0.00312814
-0.00312959
-0.00313182
-0.0031349
-0.00313865
-0.00314328
-0.0031493
-0.00315702
-0.00316607
-0.00317548
-0.00318472
-0.00319382
-0.00320248
-0.0032105
-0.00321806
-0.00322541
-0.00323327
-0.00324235
-0.00325253
-0.00326349
-0.00327524
-0.00328765
-0.0033006
-0.00331391
-0.00332699
-0.00333977
-0.00335319
-0.00336765
-0.00338224
-0.00339602
-0.00340837
-0.00341853
-0.00342637
-0.00343235
-0.00343607
-0.00343702
-0.00343628
-0.0034354
-0.0034348
-0.0034346
-0.00343535
-0.00343697
-0.00343852
-0.00343902
-0.00343751
-0.00343287
-0.00342464
-0.00341415
-0.00340341
-0.00339338
-0.00338392
-0.00337517
-0.00336772
-0.00336204
-0.00335836
-0.00335608
-0.00335353
-0.0033487
-0.00334152
-0.00238705
-0.00244503
-0.0024987
-0.00255463
-0.00260917
-0.00265948
-0.00270527
-0.00275229
-0.00280319
-0.00286096
-0.00292511
-0.00298994
-0.00305646
-0.00312596
-0.00319947
-0.00327434
-0.00334723
-0.00341586
-0.00348208
-0.00354252
-0.00359917
-0.00365239
-0.00370107
-0.00374328
-0.00377961
-0.00380929
-0.00383231
-0.00385051
-0.00386433
-0.00387374
-0.0038798
-0.00388296
-0.00388264
-0.00387929
-0.00387372
-0.00386575
-0.0038555
-0.00384307
-0.00382957
-0.00381372
-0.00379616
-0.00377808
-0.00375861
-0.00373866
-0.00371941
-0.00370037
-0.00368201
-0.00366395
-0.00364562
-0.00362753
-0.00360937
-0.00359105
-0.0035729
-0.00355458
-0.00353551
-0.00351567
-0.00349531
-0.00347473
-0.00345434
-0.00343435
-0.00341507
-0.00339698
-0.00337991
-0.00336379
-0.00334941
-0.00333668
-0.00332477
-0.00331366
-0.00330347
-0.00329372
-0.00328389
-0.00327415
-0.00326497
-0.00325583
-0.00324615
-0.00323648
-0.00322744
-0.00321897
-0.00321059
-0.00320223
-0.00319449
-0.00318728
-0.0031798
-0.00317228
-0.00316568
-0.00315995
-0.00315448
-0.00314942
-0.00314522
-0.0031418
-0.00313876
-0.0031358
-0.00313322
-0.00313152
-0.0031306
-0.00313011
-0.00313
-0.00313056
-0.0031318
-0.0031333
-0.00313466
-0.00313593
-0.00313758
-0.00313999
-0.0031429
-0.00314615
-0.00315029
-0.00315588
-0.0031631
-0.00317139
-0.0031798
-0.00318818
-0.0031967
-0.00320469
-0.00321165
-0.00321812
-0.00322491
-0.00323246
-0.00324093
-0.00325025
-0.00326057
-0.00327201
-0.00328421
-0.0032969
-0.00331003
-0.00332293
-0.00333548
-0.00334877
-0.00336318
-0.00337748
-0.00339064
-0.00340253
-0.00341287
-0.00342125
-0.00342759
-0.00343146
-0.0034328
-0.00343293
-0.00343305
-0.00343305
-0.00343315
-0.00343444
-0.00343692
-0.00343928
-0.00344028
-0.00343908
-0.00343478
-0.00342699
-0.00341697
-0.00340659
-0.0033968
-0.00338755
-0.00337912
-0.00337213
-0.0033669
-0.00336343
-0.00336114
-0.00335857
-0.00335402
-0.00334776
-0.00268992
-0.00270627
-0.00272539
-0.00275083
-0.00278154
-0.00281366
-0.00284717
-0.00288126
-0.00292121
-0.00296788
-0.00301997
-0.00307347
-0.00312957
-0.00318629
-0.00324814
-0.00331241
-0.00337618
-0.0034398
-0.00349904
-0.00355419
-0.00360517
-0.00365304
-0.00369685
-0.00373628
-0.00377021
-0.00379796
-0.0038203
-0.00383758
-0.00385014
-0.00385918
-0.00386549
-0.00386866
-0.00386882
-0.00386623
-0.00386114
-0.00385379
-0.00384441
-0.00383354
-0.00382105
-0.00380605
-0.00378983
-0.0037724
-0.00375379
-0.00373541
-0.00371677
-0.00369858
-0.00368116
-0.00366368
-0.0036463
-0.00362906
-0.00361148
-0.00359379
-0.00357627
-0.00355859
-0.00354031
-0.00352135
-0.00350201
-0.00348244
-0.00346286
-0.00344386
-0.00342569
-0.00340827
-0.00339167
-0.00337616
-0.00336212
-0.00334922
-0.00333674
-0.00332492
-0.00331399
-0.00330315
-0.00329226
-0.00328192
-0.00327199
-0.00326184
-0.00325132
-0.00324111
-0.00323165
-0.00322236
-0.00321303
-0.00320426
-0.00319618
-0.00318836
-0.00318056
-0.00317305
-0.0031664
-0.00316062
-0.00315513
-0.00315015
-0.00314638
-0.00314352
-0.00314081
-0.00313828
-0.00313661
-0.00313592
-0.00313567
-0.0031356
-0.00313601
-0.00313718
-0.00313881
-0.00314039
-0.00314172
-0.00314311
-0.00314508
-0.00314766
-0.00315025
-0.00315299
-0.00315687
-0.00316219
-0.00316858
-0.00317571
-0.00318331
-0.00319119
-0.00319903
-0.00320615
-0.00321237
-0.00321826
-0.00322448
-0.00323161
-0.00323979
-0.00324866
-0.00325836
-0.00326951
-0.00328186
-0.00329461
-0.00330732
-0.00331982
-0.00333243
-0.00334585
-0.00335976
-0.00337309
-0.00338561
-0.0033975
-0.00340804
-0.00341651
-0.00342298
-0.00342731
-0.00342939
-0.00343034
-0.00343125
-0.00343196
-0.00343266
-0.00343448
-0.00343752
-0.00344045
-0.0034419
-0.00344092
-0.00343662
-0.00342913
-0.00341974
-0.00340988
-0.00340013
-0.00339083
-0.00338274
-0.00337642
-0.00337174
-0.00336848
-0.00336619
-0.00336371
-0.00335955
-0.00335417
-0.00298159
-0.00295798
-0.00294608
-0.0029417
-0.00294735
-0.00296215
-0.00298311
-0.00300623
-0.00303367
-0.00306853
-0.00311
-0.00315562
-0.00319974
-0.00324811
-0.00329848
-0.00335197
-0.0034077
-0.00346334
-0.00351676
-0.00356685
-0.00361251
-0.00365533
-0.00369547
-0.00373136
-0.0037625
-0.00378889
-0.00381014
-0.00382599
-0.00383774
-0.00384635
-0.00385207
-0.00385517
-0.00385575
-0.00385366
-0.00384914
-0.00384259
-0.00383395
-0.00382413
-0.00381225
-0.00379879
-0.0037835
-0.00376645
-0.00374928
-0.00373187
-0.00371399
-0.00369695
-0.00368016
-0.00366328
-0.0036467
-0.00362996
-0.003613
-0.00359608
-0.00357922
-0.00356207
-0.00354441
-0.00352634
-0.00350803
-0.00348947
-0.00347096
-0.00345315
-0.00343608
-0.00341935