/*--------------------------------*- C++ -*----------------------------------*\
  =========                 |
  \\      /  F ield         | OpenFOAM: The Open Source CFD Toolbox
   \\    /   O peration     | Website:  https://openfoam.org
    \\  /    A nd           | Version:  7
     \\/     M anipulation  |
\*---------------------------------------------------------------------------*/
FoamFile
{
    version     2.0;
    format      ascii;
    class       volVectorField;
    location    "0.075";
    object      U;
}
// * * * * * * * * * * * * * * * * * * * * * * * * * * * * * * * * * * * * * //

dimensions      [0 1 -1 0 0 0 0];

internalField   nonuniform List<vector> 
51200
(
(-1.8875e-07 -5.71305e-07 0)
(8.46012e-07 -1.52458e-06 0)
(3.25037e-06 -2.3227e-06 0)
(7.13975e-06 -2.88793e-06 0)
(1.16549e-05 -3.20881e-06 0)
(1.6484e-05 -3.33674e-06 0)
(2.1342e-05 -3.32192e-06 0)
(2.60435e-05 -3.16973e-06 0)
(3.04306e-05 -2.93206e-06 0)
(3.43517e-05 -2.58999e-06 0)
(3.77158e-05 -2.14748e-06 0)
(4.04017e-05 -1.64076e-06 0)
(4.23876e-05 -1.11687e-06 0)
(4.36344e-05 -5.65542e-07 0)
(4.41173e-05 -3.72458e-08 0)
(4.39269e-05 4.69878e-07 0)
(4.30727e-05 9.03067e-07 0)
(4.16322e-05 1.31837e-06 0)
(3.96985e-05 1.64103e-06 0)
(3.73772e-05 1.92122e-06 0)
(3.47211e-05 2.12528e-06 0)
(3.18534e-05 2.27963e-06 0)
(2.89036e-05 2.33548e-06 0)
(2.5865e-05 2.35842e-06 0)
(2.28793e-05 2.34252e-06 0)
(1.99532e-05 2.28772e-06 0)
(1.71334e-05 2.20724e-06 0)
(1.44682e-05 2.10173e-06 0)
(1.19423e-05 1.97373e-06 0)
(9.6255e-06 1.81608e-06 0)
(7.5267e-06 1.66124e-06 0)
(5.63522e-06 1.50532e-06 0)
(3.9782e-06 1.34483e-06 0)
(2.55838e-06 1.17519e-06 0)
(1.36831e-06 9.98665e-07 0)
(4.17692e-07 8.15561e-07 0)
(-2.97378e-07 6.67479e-07 0)
(-7.96457e-07 5.01777e-07 0)
(-1.11118e-06 3.53778e-07 0)
(-1.19867e-06 2.34435e-07 0)
(-1.16125e-06 1.1017e-07 0)
(-9.947e-07 2.00404e-08 0)
(-6.64962e-07 -6.07059e-08 0)
(-3.06702e-07 -1.38117e-07 0)
(1.84989e-07 -2.1463e-07 0)
(7.43576e-07 -2.68378e-07 0)
(1.34447e-06 -3.07288e-07 0)
(2.02006e-06 -3.46835e-07 0)
(2.71643e-06 -3.76909e-07 0)
(3.46994e-06 -3.96265e-07 0)
(4.22688e-06 -4.10878e-07 0)
(4.97854e-06 -4.06392e-07 0)
(5.7416e-06 -3.74602e-07 0)
(6.45755e-06 -3.50494e-07 0)
(7.12404e-06 -3.3939e-07 0)
(7.7611e-06 -3.1209e-07 0)
(8.3252e-06 -2.80636e-07 0)
(8.80334e-06 -2.56734e-07 0)
(9.21316e-06 -2.10453e-07 0)
(9.54033e-06 -1.57921e-07 0)
(9.78001e-06 -1.33277e-07 0)
(9.96247e-06 -1.17399e-07 0)
(1.01158e-05 -8.54673e-08 0)
(1.02365e-05 -5.16072e-08 0)
(1.03434e-05 -3.91657e-08 0)
(1.04705e-05 -4.29743e-08 0)
(1.06165e-05 -6.3798e-08 0)
(1.07784e-05 -1.10046e-07 0)
(1.09643e-05 -1.55092e-07 0)
(1.1178e-05 -1.68471e-07 0)
(1.14031e-05 -1.54166e-07 0)
(1.16215e-05 -1.33831e-07 0)
(1.18357e-05 -1.14861e-07 0)
(1.20327e-05 -9.2189e-08 0)
(1.21941e-05 -7.68808e-08 0)
(1.23199e-05 -7.17701e-08 0)
(1.2409e-05 -5.75332e-08 0)
(1.24566e-05 -2.41676e-08 0)
(1.24488e-05 2.01055e-08 0)
(1.23812e-05 5.99796e-08 0)
(1.22626e-05 9.15244e-08 0)
(1.20998e-05 1.12076e-07 0)
(1.19057e-05 1.15412e-07 0)
(1.16963e-05 1.06484e-07 0)
(1.14928e-05 9.35184e-08 0)
(1.1309e-05 8.29897e-08 0)
(1.11464e-05 7.04591e-08 0)
(1.10102e-05 4.83067e-08 0)
(1.09036e-05 2.3403e-08 0)
(1.08265e-05 3.17477e-09 0)
(1.07745e-05 -1.42009e-08 0)
(1.07502e-05 -3.65662e-08 0)
(1.07657e-05 -6.49009e-08 0)
(1.08263e-05 -9.31034e-08 0)
(1.09404e-05 -1.25664e-07 0)
(1.11124e-05 -1.61681e-07 0)
(1.13368e-05 -1.93428e-07 0)
(1.16159e-05 -2.22373e-07 0)
(1.19377e-05 -2.43349e-07 0)
(1.22815e-05 -2.55622e-07 0)
(1.26423e-05 -2.67196e-07 0)
(1.30051e-05 -2.6902e-07 0)
(1.33545e-05 -2.57978e-07 0)
(1.36882e-05 -2.46349e-07 0)
(1.39928e-05 -2.33618e-07 0)
(1.42611e-05 -2.17844e-07 0)
(1.44948e-05 -1.99713e-07 0)
(1.46801e-05 -1.71459e-07 0)
(1.48062e-05 -1.36465e-07 0)
(1.48734e-05 -1.04485e-07 0)
(1.48755e-05 -7.27809e-08 0)
(1.48135e-05 -4.20607e-08 0)
(1.46963e-05 -1.75887e-08 0)
(1.45281e-05 3.04162e-09 0)
(1.43222e-05 1.85925e-08 0)
(1.40969e-05 2.63405e-08 0)
(1.38572e-05 3.18905e-08 0)
(1.36061e-05 3.58585e-08 0)
(1.33492e-05 3.52379e-08 0)
(1.30829e-05 3.76008e-08 0)
(1.28022e-05 4.84816e-08 0)
(1.2506e-05 6.22965e-08 0)
(1.21889e-05 7.54971e-08 0)
(1.18481e-05 8.71431e-08 0)
(1.14894e-05 9.50518e-08 0)
(1.11133e-05 1.04194e-07 0)
(1.07137e-05 1.214e-07 0)
(1.02889e-05 1.43609e-07 0)
(9.83516e-06 1.65658e-07 0)
(9.34378e-06 1.87864e-07 0)
(8.81208e-06 2.1107e-07 0)
(8.24036e-06 2.35038e-07 0)
(7.62605e-06 2.60019e-07 0)
(6.97254e-06 2.85219e-07 0)
(6.29165e-06 3.06956e-07 0)
(5.5942e-06 3.2175e-07 0)
(4.8861e-06 3.29374e-07 0)
(4.17722e-06 3.2811e-07 0)
(3.48371e-06 3.16554e-07 0)
(2.81619e-06 2.99429e-07 0)
(2.18138e-06 2.80688e-07 0)
(1.58872e-06 2.59616e-07 0)
(1.04437e-06 2.33698e-07 0)
(5.52199e-07 2.01039e-07 0)
(1.18412e-07 1.63548e-07 0)
(-2.49311e-07 1.24136e-07 0)
(-5.45894e-07 8.53497e-08 0)
(-7.71541e-07 4.79427e-08 0)
(-9.23273e-07 8.5338e-09 0)
(-9.94078e-07 -3.31818e-08 0)
(-9.85917e-07 -7.21813e-08 0)
(-9.10807e-07 -1.04085e-07 0)
(-7.77556e-07 -1.28105e-07 0)
(-5.94359e-07 -1.45591e-07 0)
(-3.82474e-07 -1.54827e-07 0)
(-1.67937e-07 -1.47015e-07 0)
(1.85824e-08 -1.18086e-07 0)
(1.41149e-07 -6.20143e-08 0)
(1.35714e-07 1.65172e-08 0)
(5.76629e-08 4.53388e-08 0)
(-1.00426e-06 -3.32072e-07 0)
(-8.87949e-07 -2.74515e-06 0)
(1.30071e-06 -5.36387e-06 0)
(5.71857e-06 -7.13338e-06 0)
(1.14794e-05 -8.08208e-06 0)
(1.7831e-05 -8.40458e-06 0)
(2.44203e-05 -8.35877e-06 0)
(3.09008e-05 -7.9343e-06 0)
(3.70065e-05 -7.29859e-06 0)
(4.2569e-05 -6.39878e-06 0)
(4.74338e-05 -5.36852e-06 0)
(5.15104e-05 -4.15628e-06 0)
(5.47242e-05 -2.91557e-06 0)
(5.7044e-05 -1.63287e-06 0)
(5.8487e-05 -4.05752e-07 0)
(5.89986e-05 7.70915e-07 0)
(5.87244e-05 1.82896e-06 0)
(5.77497e-05 2.76661e-06 0)
(5.60916e-05 3.53198e-06 0)
(5.38872e-05 4.17581e-06 0)
(5.12947e-05 4.62863e-06 0)
(4.83717e-05 4.93965e-06 0)
(4.52201e-05 5.08945e-06 0)
(4.20516e-05 5.12365e-06 0)
(3.88072e-05 5.04273e-06 0)
(3.56008e-05 4.88715e-06 0)
(3.24882e-05 4.69653e-06 0)
(2.95109e-05 4.43155e-06 0)
(2.67626e-05 4.116e-06 0)
(2.4236e-05 3.77395e-06 0)
(2.19237e-05 3.38642e-06 0)
(1.98718e-05 3.00686e-06 0)
(1.81184e-05 2.61862e-06 0)
(1.66659e-05 2.21386e-06 0)
(1.54936e-05 1.77997e-06 0)
(1.46174e-05 1.40505e-06 0)
(1.40048e-05 9.83241e-07 0)
(1.36681e-05 6.52642e-07 0)
(1.3632e-05 2.90108e-07 0)
(1.37603e-05 1.19247e-08 0)
(1.41349e-05 -2.67475e-07 0)
(1.47001e-05 -4.72996e-07 0)
(1.53709e-05 -6.46957e-07 0)
(1.62352e-05 -8.31233e-07 0)
(1.71839e-05 -9.47741e-07 0)
(1.82348e-05 -1.08971e-06 0)
(1.93726e-05 -1.18609e-06 0)
(2.05571e-05 -1.26659e-06 0)
(2.18236e-05 -1.32127e-06 0)
(2.30985e-05 -1.36839e-06 0)
(2.43897e-05 -1.39539e-06 0)
(2.57021e-05 -1.37598e-06 0)
(2.69598e-05 -1.33052e-06 0)
(2.81756e-05 -1.26497e-06 0)
(2.93494e-05 -1.1695e-06 0)
(3.04321e-05 -1.06067e-06 0)
(3.14246e-05 -9.50853e-07 0)
(3.23241e-05 -8.23359e-07 0)
(3.31051e-05 -6.73972e-07 0)
(3.37729e-05 -5.30174e-07 0)
(3.43504e-05 -4.20817e-07 0)
(3.48395e-05 -3.3665e-07 0)
(3.52545e-05 -2.7922e-07 0)
(3.56214e-05 -2.52538e-07 0)
(3.59553e-05 -2.39545e-07 0)
(3.62817e-05 -2.37796e-07 0)
(3.66153e-05 -2.58968e-07 0)
(3.69532e-05 -3.08772e-07 0)
(3.72986e-05 -3.63194e-07 0)
(3.76502e-05 -3.96235e-07 0)
(3.79993e-05 -4.08936e-07 0)
(3.83357e-05 -3.96894e-07 0)
(3.86519e-05 -3.58177e-07 0)
(3.89419e-05 -3.02223e-07 0)
(3.91906e-05 -2.43804e-07 0)
(3.93848e-05 -1.90522e-07 0)
(3.95177e-05 -1.24145e-07 0)
(3.95864e-05 -3.94262e-08 0)
(3.95823e-05 5.45965e-08 0)
(3.94977e-05 1.52323e-07 0)
(3.93447e-05 2.44748e-07 0)
(3.91402e-05 3.18521e-07 0)
(3.88934e-05 3.53001e-07 0)
(3.86111e-05 3.54108e-07 0)
(3.83135e-05 3.39547e-07 0)
(3.80268e-05 3.10954e-07 0)
(3.77509e-05 2.72843e-07 0)
(3.74861e-05 2.27163e-07 0)
(3.72483e-05 1.80298e-07 0)
(3.70434e-05 1.35493e-07 0)
(3.68697e-05 8.34299e-08 0)
(3.67264e-05 2.28051e-08 0)
(3.66253e-05 -4.87917e-08 0)
(3.65842e-05 -1.31056e-07 0)
(3.66005e-05 -2.20977e-07 0)
(3.66705e-05 -3.20911e-07 0)
(3.67972e-05 -4.12981e-07 0)
(3.69752e-05 -4.83389e-07 0)
(3.71966e-05 -5.3926e-07 0)
(3.7441e-05 -5.74313e-07 0)
(3.76867e-05 -5.85944e-07 0)
(3.79315e-05 -5.80562e-07 0)
(3.81599e-05 -5.51821e-07 0)
(3.83481e-05 -5.05475e-07 0)
(3.84933e-05 -4.53405e-07 0)
(3.85858e-05 -3.89082e-07 0)
(3.86093e-05 -3.10311e-07 0)
(3.85605e-05 -2.204e-07 0)
(3.8428e-05 -1.16181e-07 0)
(3.82011e-05 -3.989e-09 0)
(3.78868e-05 1.06824e-07 0)
(3.74852e-05 2.14004e-07 0)
(3.69978e-05 3.07577e-07 0)
(3.64407e-05 3.77831e-07 0)
(3.58211e-05 4.29703e-07 0)
(3.5148e-05 4.68374e-07 0)
(3.44432e-05 4.94347e-07 0)
(3.37102e-05 5.13051e-07 0)
(3.29408e-05 5.30198e-07 0)
(3.21414e-05 5.49607e-07 0)
(3.13158e-05 5.78087e-07 0)
(3.04574e-05 6.16672e-07 0)
(2.95657e-05 6.563e-07 0)
(2.86384e-05 6.91936e-07 0)
(2.76718e-05 7.27153e-07 0)
(2.66732e-05 7.64457e-07 0)
(2.56413e-05 8.05071e-07 0)
(2.456e-05 8.54045e-07 0)
(2.34286e-05 9.14904e-07 0)
(2.2258e-05 9.8322e-07 0)
(2.10402e-05 1.05262e-06 0)
(1.97655e-05 1.12139e-06 0)
(1.84463e-05 1.18554e-06 0)
(1.70926e-05 1.2374e-06 0)
(1.57031e-05 1.2764e-06 0)
(1.42934e-05 1.30408e-06 0)
(1.2888e-05 1.31348e-06 0)
(1.14919e-05 1.29806e-06 0)
(1.01104e-05 1.26074e-06 0)
(8.76826e-06 1.20834e-06 0)
(7.48559e-06 1.14237e-06 0)
(6.26476e-06 1.06269e-06 0)
(5.11395e-06 9.74117e-07 0)
(4.05463e-06 8.76019e-07 0)
(3.09775e-06 7.6331e-07 0)
(2.24403e-06 6.40095e-07 0)
(1.50586e-06 5.12926e-07 0)
(8.96121e-07 3.80977e-07 0)
(4.12078e-07 2.42192e-07 0)
(4.84331e-08 1.03025e-07 0)
(-1.90052e-07 -2.68942e-08 0)
(-3.00999e-07 -1.4211e-07 0)
(-3.05196e-07 -2.38342e-07 0)
(-2.32084e-07 -3.09958e-07 0)
(-9.52612e-08 -3.42624e-07 0)
(7.93859e-08 -3.2783e-07 0)
(2.41789e-07 -2.53988e-07 0)
(3.24058e-07 -9.63377e-08 0)
(2.54987e-07 1.22624e-07 0)
(9.81751e-08 1.45916e-07 0)
(-1.96789e-06 1.07751e-06 0)
(-3.85463e-06 -2.10857e-06 0)
(-4.4915e-06 -7.42139e-06 0)
(-2.70575e-06 -1.11461e-05 0)
(7.34991e-07 -1.3113e-05 0)
(4.93657e-06 -1.40357e-05 0)
(9.50528e-06 -1.40489e-05 0)
(1.41857e-05 -1.35433e-05 0)
(1.87545e-05 -1.25248e-05 0)
(2.30334e-05 -1.11953e-05 0)
(2.69726e-05 -9.52693e-06 0)
(3.05002e-05 -7.71583e-06 0)
(3.35431e-05 -5.75485e-06 0)
(3.61279e-05 -3.78883e-06 0)
(3.81988e-05 -1.82407e-06 0)
(3.98209e-05 -1.51423e-08 0)
(4.09521e-05 1.70671e-06 0)
(4.16515e-05 3.18888e-06 0)
(4.20063e-05 4.46849e-06 0)
(4.20242e-05 5.47565e-06 0)
(4.17349e-05 6.29593e-06 0)
(4.12352e-05 6.8072e-06 0)
(4.05916e-05 7.13022e-06 0)
(3.978e-05 7.24584e-06 0)
(3.89178e-05 7.198e-06 0)
(3.80594e-05 7.03307e-06 0)
(3.71954e-05 6.73424e-06 0)
(3.63638e-05 6.37486e-06 0)
(3.56321e-05 5.92243e-06 0)
(3.50014e-05 5.3851e-06 0)
(3.44823e-05 4.8107e-06 0)
(3.41037e-05 4.23404e-06 0)
(3.38616e-05 3.59582e-06 0)
(3.37565e-05 2.9678e-06 0)
(3.38457e-05 2.33441e-06 0)
(3.40348e-05 1.67705e-06 0)
(3.44057e-05 1.09933e-06 0)
(3.49277e-05 5.01924e-07 0)
(3.55331e-05 -4.26357e-09 0)
(3.63327e-05 -5.13875e-07 0)
(3.71943e-05 -9.05992e-07 0)
(3.81783e-05 -1.27332e-06 0)
(3.92574e-05 -1.59079e-06 0)
(4.04047e-05 -1.82496e-06 0)
(4.16402e-05 -2.0742e-06 0)
(4.29104e-05 -2.26365e-06 0)
(4.42308e-05 -2.42521e-06 0)
(4.55771e-05 -2.54912e-06 0)
(4.69298e-05 -2.64111e-06 0)
(4.8301e-05 -2.70075e-06 0)
(4.96729e-05 -2.71394e-06 0)
(5.10045e-05 -2.69934e-06 0)
(5.23131e-05 -2.63347e-06 0)
(5.35881e-05 -2.5107e-06 0)
(5.47874e-05 -2.36246e-06 0)
(5.5929e-05 -2.17834e-06 0)
(5.70202e-05 -1.96551e-06 0)
(5.8021e-05 -1.74258e-06 0)
(5.89354e-05 -1.50444e-06 0)
(5.97872e-05 -1.26149e-06 0)
(6.05638e-05 -1.05353e-06 0)
(6.1272e-05 -8.9812e-07 0)
(6.19312e-05 -7.88136e-07 0)
(6.2532e-05 -7.26439e-07 0)
(6.30677e-05 -6.99537e-07 0)
(6.35586e-05 -6.84911e-07 0)
(6.40198e-05 -6.82634e-07 0)
(6.44443e-05 -6.97655e-07 0)
(6.48421e-05 -7.22001e-07 0)
(6.52239e-05 -7.38604e-07 0)
(6.55715e-05 -7.38009e-07 0)
(6.58797e-05 -7.14723e-07 0)
(6.61576e-05 -6.5614e-07 0)
(6.6401e-05 -5.64554e-07 0)
(6.65991e-05 -4.54602e-07 0)
(6.67481e-05 -3.35483e-07 0)
(6.68519e-05 -2.0448e-07 0)
(6.69044e-05 -5.81961e-08 0)
(6.68963e-05 9.35505e-08 0)
(6.6832e-05 2.45773e-07 0)
(6.67233e-05 3.91496e-07 0)
(6.65736e-05 5.12526e-07 0)
(6.63813e-05 5.9181e-07 0)
(6.61535e-05 6.24802e-07 0)
(6.58962e-05 6.26174e-07 0)
(6.56155e-05 6.03263e-07 0)
(6.53144e-05 5.59734e-07 0)
(6.49947e-05 5.06793e-07 0)
(6.46757e-05 4.48273e-07 0)
(6.43633e-05 3.87072e-07 0)
(6.40527e-05 3.15218e-07 0)
(6.37512e-05 2.24312e-07 0)
(6.34602e-05 1.22549e-07 0)
(6.31879e-05 5.89801e-09 0)
(6.29325e-05 -1.25916e-07 0)
(6.26785e-05 -2.58656e-07 0)
(6.24368e-05 -3.85362e-07 0)
(6.22052e-05 -4.87559e-07 0)
(6.1968e-05 -5.536e-07 0)
(6.17302e-05 -5.94686e-07 0)
(6.14785e-05 -6.03575e-07 0)
(6.12008e-05 -5.73124e-07 0)
(6.09051e-05 -5.16516e-07 0)
(6.05694e-05 -4.33439e-07 0)
(6.01774e-05 -3.24773e-07 0)
(5.97394e-05 -2.00789e-07 0)
(5.92431e-05 -5.44553e-08 0)
(5.86773e-05 1.14874e-07 0)
(5.80449e-05 2.94172e-07 0)
(5.73353e-05 4.85099e-07 0)
(5.65523e-05 6.83809e-07 0)
(5.57097e-05 8.70748e-07 0)
(5.47975e-05 1.03756e-06 0)
(5.38146e-05 1.17876e-06 0)
(5.2776e-05 1.28674e-06 0)
(5.16801e-05 1.37182e-06 0)
(5.05282e-05 1.44509e-06 0)
(4.9332e-05 1.50337e-06 0)
(4.8088e-05 1.55434e-06 0)
(4.6796e-05 1.61327e-06 0)
(4.54721e-05 1.67882e-06 0)
(4.41151e-05 1.74727e-06 0)
(4.27129e-05 1.82291e-06 0)
(4.12729e-05 1.90046e-06 0)
(3.98036e-05 1.9725e-06 0)
(3.82967e-05 2.04693e-06 0)
(3.67494e-05 2.13002e-06 0)
(3.51669e-05 2.21762e-06 0)
(3.35452e-05 2.31346e-06 0)
(3.18847e-05 2.42416e-06 0)
(3.01995e-05 2.54064e-06 0)
(2.84948e-05 2.64862e-06 0)
(2.67638e-05 2.74284e-06 0)
(2.50112e-05 2.8197e-06 0)
(2.32536e-05 2.87283e-06 0)
(2.14994e-05 2.89992e-06 0)
(1.97495e-05 2.9003e-06 0)
(1.80151e-05 2.86776e-06 0)
(1.63134e-05 2.79849e-06 0)
(1.46512e-05 2.69896e-06 0)
(1.3036e-05 2.57525e-06 0)
(1.14837e-05 2.4269e-06 0)
(1.0005e-05 2.25452e-06 0)
(8.60464e-06 2.06135e-06 0)
(7.29617e-06 1.84906e-06 0)
(6.09891e-06 1.61798e-06 0)
(5.01864e-06 1.36967e-06 0)
(4.05018e-06 1.10901e-06 0)
(3.2001e-06 8.42015e-07 0)
(2.48261e-06 5.73555e-07 0)
(1.89885e-06 3.14133e-07 0)
(1.43658e-06 7.79145e-08 0)
(1.08882e-06 -1.26639e-07 0)
(8.56233e-07 -2.8495e-07 0)
(7.16314e-07 -3.8048e-07 0)
(6.35831e-07 -3.9369e-07 0)
(5.86104e-07 -2.90489e-07 0)
(5.15818e-07 -4.51207e-08 0)
(3.34965e-07 3.19014e-07 0)
(1.14392e-07 3.25874e-07 0)
(-2.63779e-06 4.24449e-06 0)
(-5.91648e-06 1.03417e-06 0)
(-8.62317e-06 -6.96177e-06 0)
(-8.76798e-06 -1.26351e-05 0)
(-7.20277e-06 -1.58938e-05 0)
(-4.79694e-06 -1.7475e-05 0)
(-1.82689e-06 -1.78651e-05 0)
(1.36566e-06 -1.74173e-05 0)
(4.66179e-06 -1.63362e-05 0)
(7.9459e-06 -1.48304e-05 0)
(1.11282e-05 -1.29536e-05 0)
(1.41693e-05 -1.08522e-05 0)
(1.70765e-05 -8.62051e-06 0)
(1.98276e-05 -6.31362e-06 0)
(2.24128e-05 -4.08663e-06 0)
(2.47825e-05 -1.90506e-06 0)
(2.70107e-05 3.67739e-08 0)
(2.90612e-05 1.857e-06 0)
(3.09279e-05 3.34592e-06 0)
(3.26701e-05 4.62446e-06 0)
(3.42788e-05 5.5641e-06 0)
(3.57035e-05 6.2929e-06 0)
(3.70215e-05 6.74043e-06 0)
(3.82893e-05 6.94903e-06 0)
(3.94449e-05 6.98418e-06 0)
(4.05171e-05 6.84872e-06 0)
(4.15694e-05 6.57327e-06 0)
(4.26004e-05 6.18893e-06 0)
(4.36219e-05 5.69976e-06 0)
(4.46733e-05 5.11203e-06 0)
(4.57574e-05 4.50588e-06 0)
(4.68182e-05 3.7858e-06 0)
(4.79262e-05 3.11606e-06 0)
(4.91201e-05 2.36792e-06 0)
(5.02817e-05 1.66047e-06 0)
(5.15452e-05 9.26955e-07 0)
(5.28116e-05 2.49815e-07 0)
(5.41117e-05 -4.19735e-07 0)
(5.54878e-05 -1.02446e-06 0)
(5.68359e-05 -1.57355e-06 0)
(5.82836e-05 -2.06549e-06 0)
(5.97104e-05 -2.49643e-06 0)
(6.11889e-05 -2.86006e-06 0)
(6.27128e-05 -3.15985e-06 0)
(6.41971e-05 -3.44513e-06 0)
(6.57432e-05 -3.64701e-06 0)
(6.7272e-05 -3.83438e-06 0)
(6.87723e-05 -3.97317e-06 0)
(7.02904e-05 -4.05173e-06 0)
(7.17663e-05 -4.08731e-06 0)
(7.32024e-05 -4.08275e-06 0)
(7.4627e-05 -4.02504e-06 0)
(7.60095e-05 -3.91308e-06 0)
(7.73366e-05 -3.76473e-06 0)
(7.86201e-05 -3.56672e-06 0)
(7.98485e-05 -3.31985e-06 0)
(8.10138e-05 -3.05436e-06 0)
(8.21276e-05 -2.77422e-06 0)
(8.31905e-05 -2.475e-06 0)
(8.41892e-05 -2.18113e-06 0)
(8.51232e-05 -1.91301e-06 0)
(8.60062e-05 -1.67652e-06 0)
(8.68348e-05 -1.49203e-06 0)
(8.76021e-05 -1.3731e-06 0)
(8.83112e-05 -1.29641e-06 0)
(8.89595e-05 -1.24009e-06 0)
(8.9538e-05 -1.20308e-06 0)
(9.00443e-05 -1.17321e-06 0)
(9.04971e-05 -1.13918e-06 0)
(9.09055e-05 -1.10108e-06 0)
(9.12594e-05 -1.05668e-06 0)
(9.15668e-05 -9.92472e-07 0)
(9.1834e-05 -8.94106e-07 0)
(9.20541e-05 -7.68593e-07 0)
(9.22226e-05 -6.22643e-07 0)
(9.23403e-05 -4.52975e-07 0)
(9.24147e-05 -2.65545e-07 0)
(9.24444e-05 -6.97896e-08 0)
(9.24287e-05 1.25678e-07 0)
(9.23743e-05 3.18347e-07 0)
(9.22837e-05 5.029e-07 0)
(9.21556e-05 6.58687e-07 0)
(9.19834e-05 7.74782e-07 0)
(9.17676e-05 8.52297e-07 0)
(9.15126e-05 8.9329e-07 0)
(9.12184e-05 9.0067e-07 0)
(9.08834e-05 8.80801e-07 0)
(9.05072e-05 8.48715e-07 0)
(9.01071e-05 8.08825e-07 0)
(8.9689e-05 7.56171e-07 0)
(8.92439e-05 6.90118e-07 0)
(8.87819e-05 6.0588e-07 0)
(8.83042e-05 5.0848e-07 0)
(8.78065e-05 4.01667e-07 0)
(8.72888e-05 2.77563e-07 0)
(8.67362e-05 1.52878e-07 0)
(8.61552e-05 4.62418e-08 0)
(8.55576e-05 -4.19885e-08 0)
(8.49224e-05 -9.67533e-08 0)
(8.4248e-05 -1.11536e-07 0)
(8.35479e-05 -9.41023e-08 0)
(8.28138e-05 -3.45272e-08 0)
(8.20413e-05 6.34276e-08 0)
(8.12255e-05 1.84665e-07 0)
(8.03552e-05 3.38523e-07 0)
(7.94346e-05 5.25033e-07 0)
(7.8463e-05 7.30655e-07 0)
(7.74279e-05 9.58394e-07 0)
(7.63329e-05 1.20338e-06 0)
(7.51847e-05 1.45346e-06 0)
(7.39771e-05 1.71108e-06 0)
(7.27098e-05 1.96427e-06 0)
(7.13873e-05 2.19006e-06 0)
(7.00054e-05 2.38919e-06 0)
(6.85628e-05 2.56454e-06 0)
(6.70638e-05 2.70877e-06 0)
(6.55041e-05 2.83148e-06 0)
(6.38815e-05 2.9457e-06 0)
(6.22052e-05 3.0496e-06 0)
(6.04799e-05 3.15004e-06 0)
(5.87051e-05 3.25911e-06 0)
(5.68923e-05 3.36985e-06 0)
(5.50447e-05 3.4757e-06 0)
(5.31489e-05 3.58612e-06 0)
(5.12107e-05 3.7028e-06 0)
(4.92491e-05 3.81748e-06 0)
(4.72538e-05 3.93208e-06 0)
(4.52122e-05 4.05269e-06 0)
(4.31459e-05 4.17882e-06 0)
(4.10703e-05 4.30981e-06 0)
(3.89721e-05 4.44391e-06 0)
(3.68535e-05 4.57067e-06 0)
(3.47385e-05 4.67649e-06 0)
(3.26298e-05 4.75565e-06 0)
(3.05177e-05 4.80711e-06 0)
(2.84178e-05 4.82498e-06 0)
(2.63455e-05 4.80325e-06 0)
(2.42929e-05 4.74124e-06 0)
(2.22641e-05 4.63934e-06 0)
(2.02837e-05 4.49839e-06 0)
(1.83604e-05 4.31949e-06 0)
(1.64886e-05 4.10404e-06 0)
(1.46799e-05 3.85523e-06 0)
(1.29587e-05 3.57539e-06 0)
(1.13312e-05 3.2665e-06 0)
(9.79567e-06 2.93081e-06 0)
(8.36823e-06 2.57026e-06 0)
(7.06572e-06 2.18921e-06 0)
(5.88291e-06 1.79463e-06 0)
(4.81734e-06 1.39719e-06 0)
(3.8875e-06 1.01008e-06 0)
(3.10219e-06 6.43703e-07 0)
(2.44905e-06 3.14606e-07 0)
(1.91368e-06 4.41565e-08 0)
(1.49401e-06 -1.46703e-07 0)
(1.18592e-06 -2.217e-07 0)
(9.43031e-07 -1.43472e-07 0)
(7.04808e-07 1.46073e-07 0)
(4.11299e-07 5.9906e-07 0)
(1.3493e-07 5.41487e-07 0)
(-3.00501e-06 8.14824e-06 0)
(-7.00203e-06 5.62515e-06 0)
(-1.07705e-05 -4.84373e-06 0)
(-1.2138e-05 -1.25212e-05 0)
(-1.17038e-05 -1.70677e-05 0)
(-1.03209e-05 -1.93959e-05 0)
(-8.35348e-06 -2.02927e-05 0)
(-5.99066e-06 -2.00655e-05 0)
(-3.42735e-06 -1.91357e-05 0)
(-7.38414e-07 -1.76463e-05 0)
(2.08045e-06 -1.58003e-05 0)
(4.92517e-06 -1.36852e-05 0)
(7.8234e-06 -1.1416e-05 0)
(1.07397e-05 -9.11467e-06 0)
(1.36859e-05 -6.7965e-06 0)
(1.66451e-05 -4.64014e-06 0)
(1.96009e-05 -2.56749e-06 0)
(2.25289e-05 -7.65424e-07 0)
(2.54425e-05 8.64789e-07 0)
(2.83435e-05 2.16571e-06 0)
(3.1173e-05 3.25893e-06 0)
(3.39887e-05 4.0087e-06 0)
(3.66833e-05 4.54187e-06 0)
(3.92996e-05 4.86252e-06 0)
(4.18676e-05 4.94749e-06 0)
(4.43751e-05 4.84874e-06 0)
(4.68169e-05 4.65486e-06 0)
(4.91821e-05 4.28078e-06 0)
(5.14911e-05 3.83318e-06 0)
(5.38038e-05 3.29794e-06 0)
(5.60183e-05 2.65951e-06 0)
(5.82413e-05 2.01676e-06 0)
(6.04297e-05 1.30634e-06 0)
(6.2534e-05 6.17632e-07 0)
(6.46719e-05 -1.31816e-07 0)
(6.67151e-05 -7.96196e-07 0)
(6.87682e-05 -1.51482e-06 0)
(7.07831e-05 -2.1352e-06 0)
(7.27437e-05 -2.75006e-06 0)
(7.47231e-05 -3.28871e-06 0)
(7.66248e-05 -3.76748e-06 0)
(7.85381e-05 -4.2043e-06 0)
(8.04481e-05 -4.53928e-06 0)
(8.22846e-05 -4.87853e-06 0)
(8.41467e-05 -5.11556e-06 0)
(8.59652e-05 -5.31001e-06 0)
(8.77252e-05 -5.48674e-06 0)
(8.94897e-05 -5.57906e-06 0)
(9.11949e-05 -5.63563e-06 0)
(9.28452e-05 -5.64998e-06 0)
(9.44618e-05 -5.58683e-06 0)
(9.60203e-05 -5.47262e-06 0)
(9.75227e-05 -5.31604e-06 0)
(9.89861e-05 -5.10739e-06 0)
(0.000100399 -4.85303e-06 0)
(0.000101748 -4.56568e-06 0)
(0.000103046 -4.24599e-06 0)
(0.000104297 -3.90203e-06 0)
(0.000105496 -3.55872e-06 0)
(0.000106644 -3.22974e-06 0)
(0.000107743 -2.91328e-06 0)
(0.000108781 -2.62242e-06 0)
(0.000109744 -2.37268e-06 0)
(0.000110641 -2.16576e-06 0)
(0.000111476 -2.00126e-06 0)
(0.000112235 -1.87716e-06 0)
(0.000112918 -1.78479e-06 0)
(0.000113527 -1.69882e-06 0)
(0.000114058 -1.60617e-06 0)
(0.000114516 -1.51058e-06 0)
(0.0001149 -1.39988e-06 0)
(0.000115228 -1.267e-06 0)
(0.000115504 -1.11472e-06 0)
(0.000115719 -9.44934e-07 0)
(0.000115885 -7.57528e-07 0)
(0.000116003 -5.4571e-07 0)
(0.000116071 -3.16603e-07 0)
(0.000116086 -7.95087e-08 0)
(0.000116055 1.63343e-07 0)
(0.000115994 4.00367e-07 0)
(0.000115896 6.20729e-07 0)
(0.000115753 8.12118e-07 0)
(0.000115567 9.67828e-07 0)
(0.000115338 1.09233e-06 0)
(0.000115053 1.18243e-06 0)
(0.000114712 1.23696e-06 0)
(0.000114322 1.2639e-06 0)
(0.000113883 1.27375e-06 0)
(0.000113397 1.27072e-06 0)
(0.000112869 1.24854e-06 0)
(0.000112295 1.21215e-06 0)
(0.000111684 1.16474e-06 0)
(0.000111037 1.099e-06 0)
(0.000110338 1.02367e-06 0)
(0.000109588 9.42591e-07 0)
(0.00010879 8.58684e-07 0)
(0.000107939 7.95199e-07 0)
(0.000107034 7.55662e-07 0)
(0.000106079 7.37726e-07 0)
(0.00010507 7.61923e-07 0)
(0.000104012 8.29435e-07 0)
(0.000102909 9.31336e-07 0)
(0.000101753 1.07328e-06 0)
(0.000100545 1.24767e-06 0)
(9.92878e-05 1.44936e-06 0)
(9.79746e-05 1.68762e-06 0)
(9.66024e-05 1.95296e-06 0)
(9.51764e-05 2.23395e-06 0)
(9.36925e-05 2.53518e-06 0)
(9.21544e-05 2.84723e-06 0)
(9.05705e-05 3.15511e-06 0)
(8.89293e-05 3.45761e-06 0)
(8.72266e-05 3.74452e-06 0)
(8.54738e-05 4.00175e-06 0)
(8.36612e-05 4.23495e-06 0)
(8.17792e-05 4.44809e-06 0)
(7.98393e-05 4.63323e-06 0)
(7.78378e-05 4.79837e-06 0)
(7.57653e-05 4.96074e-06 0)
(7.36399e-05 5.12021e-06 0)
(7.14707e-05 5.27298e-06 0)
(6.92448e-05 5.42547e-06 0)
(6.69712e-05 5.57784e-06 0)
(6.46672e-05 5.72454e-06 0)
(6.23236e-05 5.87039e-06 0)
(5.99331e-05 6.02169e-06 0)
(5.75101e-05 6.17301e-06 0)
(5.50629e-05 6.31967e-06 0)
(5.25893e-05 6.46702e-06 0)
(5.00988e-05 6.61555e-06 0)
(4.76061e-05 6.75458e-06 0)
(4.51106e-05 6.87716e-06 0)
(4.2611e-05 6.9807e-06 0)
(4.01209e-05 7.05595e-06 0)
(3.76512e-05 7.09335e-06 0)
(3.52003e-05 7.09009e-06 0)
(3.27689e-05 7.04315e-06 0)
(3.03682e-05 6.94763e-06 0)
(2.80096e-05 6.80372e-06 0)
(2.56938e-05 6.61635e-06 0)
(2.34244e-05 6.3853e-06 0)
(2.12176e-05 6.10611e-06 0)
(1.90844e-05 5.78127e-06 0)
(1.7028e-05 5.41728e-06 0)
(1.50604e-05 5.01537e-06 0)
(1.3199e-05 4.57589e-06 0)
(1.14499e-05 4.10382e-06 0)
(9.81104e-06 3.60406e-06 0)
(8.29372e-06 3.08234e-06 0)
(6.91822e-06 2.55236e-06 0)
(5.68718e-06 2.02782e-06 0)
(4.5949e-06 1.52088e-06 0)
(3.64864e-06 1.05251e-06 0)
(2.85531e-06 6.44803e-07 0)
(2.20624e-06 3.3539e-07 0)
(1.67843e-06 1.64e-07 0)
(1.2513e-06 1.79685e-07 0)
(8.77316e-07 4.67765e-07 0)
(4.80634e-07 9.74163e-07 0)
(1.51139e-07 7.98118e-07 0)
(-3.1523e-06 1.24233e-05 0)
(-7.38367e-06 1.08528e-05 0)
(-1.17345e-05 -1.99324e-06 0)
(-1.36543e-05 -1.16915e-05 0)
(-1.3779e-05 -1.75035e-05 0)
(-1.30384e-05 -2.07277e-05 0)
(-1.15772e-05 -2.21011e-05 0)
(-9.68235e-06 -2.22807e-05 0)
(-7.50391e-06 -2.15638e-05 0)
(-5.05492e-06 -2.025e-05 0)
(-2.43459e-06 -1.85234e-05 0)
(3.70068e-07 -1.65348e-05 0)
(3.31027e-06 -1.43848e-05 0)
(6.44368e-06 -1.21717e-05 0)
(9.67945e-06 -9.96798e-06 0)
(1.30286e-05 -7.87405e-06 0)
(1.65169e-05 -5.867e-06 0)
(2.00823e-05 -4.10977e-06 0)
(2.36963e-05 -2.49486e-06 0)
(2.73836e-05 -1.1938e-06 0)
(3.10948e-05 -8.82527e-08 0)
(3.47228e-05 7.25526e-07 0)
(3.8428e-05 1.30471e-06 0)
(4.20698e-05 1.65593e-06 0)
(4.55982e-05 1.81045e-06 0)
(4.91275e-05 1.82222e-06 0)
(5.25632e-05 1.61985e-06 0)
(5.59045e-05 1.36401e-06 0)
(5.92189e-05 9.47476e-07 0)
(6.24114e-05 4.90855e-07 0)
(6.55891e-05 -8.2402e-08 0)
(6.86426e-05 -6.48699e-07 0)
(7.16287e-05 -1.30604e-06 0)
(7.45638e-05 -1.9547e-06 0)
(7.73854e-05 -2.59224e-06 0)
(8.01721e-05 -3.26172e-06 0)
(8.28346e-05 -3.86305e-06 0)
(8.54554e-05 -4.46165e-06 0)
(8.80028e-05 -5.00799e-06 0)
(9.04595e-05 -5.49555e-06 0)
(9.28776e-05 -5.94431e-06 0)
(9.52257e-05 -6.29883e-06 0)
(9.74996e-05 -6.63654e-06 0)
(9.97475e-05 -6.90137e-06 0)
(0.000101936 -7.09007e-06 0)
(0.000104039 -7.27562e-06 0)
(0.000106107 -7.3612e-06 0)
(0.00010811 -7.41018e-06 0)
(0.000110039 -7.42647e-06 0)
(0.000111924 -7.36962e-06 0)
(0.000113741 -7.2636e-06 0)
(0.000115484 -7.10641e-06 0)
(0.000117168 -6.88623e-06 0)
(0.000118794 -6.61597e-06 0)
(0.00012036 -6.31154e-06 0)
(0.000121868 -5.96978e-06 0)
(0.000123323 -5.5919e-06 0)
(0.000124717 -5.19555e-06 0)
(0.00012605 -4.79506e-06 0)
(0.000127337 -4.40311e-06 0)
(0.000128574 -4.03146e-06 0)
(0.000129746 -3.69305e-06 0)
(0.000130848 -3.38832e-06 0)
(0.000131872 -3.10788e-06 0)
(0.000132812 -2.85932e-06 0)
(0.000133664 -2.64686e-06 0)
(0.000134437 -2.45938e-06 0)
(0.00013513 -2.28829e-06 0)
(0.000135732 -2.12469e-06 0)
(0.000136253 -1.96211e-06 0)
(0.000136697 -1.78465e-06 0)
(0.000137064 -1.58427e-06 0)
(0.000137359 -1.36973e-06 0)
(0.000137589 -1.13876e-06 0)
(0.000137766 -8.90175e-07 0)
(0.000137888 -6.26717e-07 0)
(0.000137951 -3.54371e-07 0)
(0.000137965 -7.78348e-08 0)
(0.000137931 2.08681e-07 0)
(0.000137851 4.91705e-07 0)
(0.000137727 7.52925e-07 0)
(0.000137558 9.89951e-07 0)
(0.000137343 1.19749e-06 0)
(0.000137075 1.3731e-06 0)
(0.000136742 1.51495e-06 0)
(0.000136348 1.62531e-06 0)
(0.000135896 1.71278e-06 0)
(0.000135381 1.77873e-06 0)
(0.000134803 1.82673e-06 0)
(0.000134169 1.85666e-06 0)
(0.00013348 1.8693e-06 0)
(0.000132729 1.8753e-06 0)
(0.000131917 1.86746e-06 0)
(0.000131046 1.84271e-06 0)
(0.000130104 1.82058e-06 0)
(0.000129091 1.80483e-06 0)
(0.000128015 1.79951e-06 0)
(0.000126864 1.82115e-06 0)
(0.000125644 1.86906e-06 0)
(0.000124364 1.94757e-06 0)
(0.000123019 2.07101e-06 0)
(0.000121612 2.23202e-06 0)
(0.000120148 2.42474e-06 0)
(0.000118617 2.65649e-06 0)
(0.000117032 2.92043e-06 0)
(0.000115395 3.20971e-06 0)
(0.00011369 3.52821e-06 0)
(0.000111925 3.86765e-06 0)
(0.000110111 4.2193e-06 0)
(0.000108238 4.5856e-06 0)
(0.00010631 4.95416e-06 0)
(0.000104333 5.30658e-06 0)
(0.000102292 5.64511e-06 0)
(0.000100191 5.96945e-06 0)
(9.80387e-05 6.26583e-06 0)
(9.58153e-05 6.53631e-06 0)
(9.35145e-05 6.79098e-06 0)
(9.11556e-05 7.02552e-06 0)
(8.87393e-05 7.24221e-06 0)
(8.62511e-05 7.45622e-06 0)
(8.37007e-05 7.66769e-06 0)
(8.11072e-05 7.86796e-06 0)
(7.8465e-05 8.06259e-06 0)
(7.57672e-05 8.25716e-06 0)
(7.3033e-05 8.44437e-06 0)
(7.02727e-05 8.62282e-06 0)
(6.74681e-05 8.80062e-06 0)
(6.46217e-05 8.97654e-06 0)
(6.1766e-05 9.14374e-06 0)
(5.8907e-05 9.30208e-06 0)
(5.603e-05 9.44708e-06 0)
(5.31492e-05 9.56722e-06 0)
(5.02875e-05 9.65804e-06 0)
(4.7439e-05 9.7183e-06 0)
(4.45977e-05 9.73938e-06 0)
(4.17825e-05 9.71166e-06 0)
(3.90033e-05 9.6327e-06 0)
(3.62512e-05 9.50288e-06 0)
(3.35365e-05 9.3187e-06 0)
(3.08796e-05 9.07917e-06 0)
(2.82776e-05 8.78761e-06 0)
(2.57263e-05 8.44265e-06 0)
(2.3248e-05 8.04276e-06 0)
(2.08651e-05 7.5921e-06 0)
(1.85766e-05 7.09408e-06 0)
(1.63831e-05 6.54967e-06 0)
(1.43033e-05 5.96134e-06 0)
(1.2353e-05 5.33532e-06 0)
(1.05341e-05 4.68204e-06 0)
(8.8508e-06 4.01242e-06 0)
(7.31927e-06 3.33624e-06 0)
(5.95461e-06 2.67455e-06 0)
(4.75214e-06 2.04763e-06 0)
(3.70914e-06 1.48899e-06 0)
(2.83168e-06 1.0315e-06 0)
(2.11084e-06 7.30509e-07 0)
(1.52035e-06 6.59139e-07 0)
(1.00998e-06 9.06454e-07 0)
(5.26003e-07 1.42211e-06 0)
(1.62663e-07 1.08486e-06 0)
(-3.15093e-06 1.67452e-05 0)
(-7.34879e-06 1.63176e-05 0)
(-1.17128e-05 1.12959e-06 0)
(-1.38808e-05 -1.04578e-05 0)
(-1.42923e-05 -1.75868e-05 0)
(-1.37537e-05 -2.16406e-05 0)
(-1.25784e-05 -2.36264e-05 0)
(-1.09141e-05 -2.41796e-05 0)
(-8.86182e-06 -2.37878e-05 0)
(-6.55275e-06 -2.27302e-05 0)
(-3.94138e-06 -2.121e-05 0)
(-1.11653e-06 -1.94264e-05 0)
(1.95737e-06 -1.74743e-05 0)
(5.24004e-06 -1.5438e-05 0)
(8.71227e-06 -1.34285e-05 0)
(1.24237e-05 -1.14641e-05 0)
(1.6265e-05 -9.65919e-06 0)
(2.02632e-05 -7.94896e-06 0)
(2.43871e-05 -6.51775e-06 0)
(2.86109e-05 -5.18841e-06 0)
(3.29103e-05 -4.19998e-06 0)
(3.72417e-05 -3.33667e-06 0)
(4.15635e-05 -2.74647e-06 0)
(4.58604e-05 -2.34802e-06 0)
(5.01839e-05 -2.13491e-06 0)
(5.43986e-05 -2.0925e-06 0)
(5.85899e-05 -2.18276e-06 0)
(6.26973e-05 -2.40521e-06 0)
(6.669e-05 -2.69587e-06 0)
(7.06497e-05 -3.13066e-06 0)
(7.44711e-05 -3.53985e-06 0)
(7.82346e-05 -4.10005e-06 0)
(8.18699e-05 -4.60251e-06 0)
(8.5426e-05 -5.17266e-06 0)
(8.88769e-05 -5.72967e-06 0)
(9.21924e-05 -6.28701e-06 0)
(9.54567e-05 -6.81129e-06 0)
(9.8574e-05 -7.31032e-06 0)
(0.000101605 -7.77261e-06 0)
(0.000104559 -8.17808e-06 0)
(0.000107395 -8.53922e-06 0)
(0.000110153 -8.84097e-06 0)
(0.000112825 -9.09031e-06 0)
(0.000115426 -9.27288e-06 0)
(0.000117929 -9.42513e-06 0)
(0.000120362 -9.50984e-06 0)
(0.000122722 -9.53443e-06 0)
(0.000124975 -9.52647e-06 0)
(0.000127164 -9.44564e-06 0)
(0.000129278 -9.31295e-06 0)
(0.000131306 -9.14446e-06 0)
(0.000133264 -8.91455e-06 0)
(0.000135148 -8.63027e-06 0)
(0.000136954 -8.30118e-06 0)
(0.000138692 -7.93145e-06 0)
(0.000140371 -7.52742e-06 0)
(0.000141987 -7.09607e-06 0)
(0.000143535 -6.64957e-06 0)
(0.000145016 -6.19115e-06 0)
(0.000146436 -5.72945e-06 0)
(0.000147792 -5.28657e-06 0)
(0.000149079 -4.8752e-06 0)
(0.000150297 -4.49303e-06 0)
(0.000151436 -4.14039e-06 0)
(0.00015248 -3.81832e-06 0)
(0.000153427 -3.52018e-06 0)
(0.000154286 -3.23598e-06 0)
(0.000155052 -2.96886e-06 0)
(0.000155721 -2.71595e-06 0)
(0.000156303 -2.46387e-06 0)
(0.000156803 -2.20458e-06 0)
(0.000157217 -1.93531e-06 0)
(0.00015755 -1.65573e-06 0)
(0.000157808 -1.35761e-06 0)