/*--------------------------------*- C++ -*----------------------------------*\
  =========                 |
  \\      /  F ield         | OpenFOAM: The Open Source CFD Toolbox
   \\    /   O peration     | Website:  https://openfoam.org
    \\  /    A nd           | Version:  7
     \\/     M anipulation  |
\*---------------------------------------------------------------------------*/
FoamFile
{
    version     2.0;
    format      ascii;
    class       surfaceScalarField;
    location    "0.0375";
    object      phi;
}
// * * * * * * * * * * * * * * * * * * * * * * * * * * * * * * * * * * * * * //

dimensions      [0 3 -1 0 0 0 0];

internalField   nonuniform List<scalar> 
25360
(
9.02787e-11
-9.02402e-11
2.41063e-10
-1.50792e-10
3.2014e-10
-7.90791e-11
3.01152e-10
1.8984e-11
1.66725e-10
1.34427e-10
-8.46887e-11
2.51411e-10
-4.47863e-10
3.63174e-10
-9.14293e-10
4.6643e-10
-1.47397e-09
5.59679e-10
-2.11638e-09
6.42414e-10
-2.83108e-09
7.14693e-10
-3.60796e-09
7.7688e-10
-4.43754e-09
8.29581e-10
-5.31105e-09
8.73517e-10
-6.22047e-09
9.0942e-10
-7.1585e-09
9.38034e-10
-8.11861e-09
9.60101e-10
-9.09499e-09
9.7637e-10
-1.00825e-08
9.87558e-10
-1.10768e-08
9.94296e-10
-1.2074e-08
9.97124e-10
-1.30705e-08
9.96548e-10
-1.40635e-08
9.93035e-10
-1.50506e-08
9.87025e-10
-1.60295e-08
9.78918e-10
-1.69985e-08
9.69032e-10
-1.79562e-08
9.57649e-10
-1.89012e-08
9.45021e-10
-1.98326e-08
9.31366e-10
-2.07495e-08
9.1689e-10
-2.16512e-08
9.01778e-10
-2.25374e-08
8.86174e-10
-2.34076e-08
8.7017e-10
-2.42614e-08
8.53847e-10
-2.50987e-08
8.37293e-10
-2.59193e-08
8.20569e-10
-2.6723e-08
8.03712e-10
-2.75098e-08
7.86782e-10
-2.82796e-08
7.69835e-10
-2.90325e-08
7.52887e-10
-2.97685e-08
7.3596e-10
-3.04876e-08
7.19105e-10
-3.11899e-08
7.02354e-10
-3.18756e-08
6.85695e-10
-3.25447e-08
6.69127e-10
-3.31974e-08
6.52681e-10
-3.38338e-08
6.36387e-10
-3.44541e-08
6.20242e-10
-3.50583e-08
6.04253e-10
-3.56467e-08
5.88443e-10
-3.62196e-08
5.72828e-10
-3.6777e-08
5.574e-10
-3.73191e-08
5.42153e-10
-3.78462e-08
5.27098e-10
-3.83585e-08
5.12253e-10
-3.88561e-08
4.97615e-10
-3.93393e-08
4.8317e-10
-3.98082e-08
4.68913e-10
-4.0263e-08
4.5485e-10
-4.0704e-08
4.40984e-10
-4.11313e-08
4.27303e-10
-4.15451e-08
4.13795e-10
-4.19456e-08
4.00459e-10
-4.23329e-08
3.87296e-10
-4.27072e-08
3.74303e-10
-4.30686e-08
3.61466e-10
-4.34174e-08
3.48772e-10
-4.37536e-08
3.36219e-10
-4.40774e-08
3.23809e-10
-4.4389e-08
3.11534e-10
-4.46884e-08
2.9937e-10
-4.49756e-08
2.8729e-10
-4.52509e-08
2.75275e-10
-4.55142e-08
2.63316e-10
-4.57656e-08
2.51398e-10
-4.60051e-08
2.39503e-10
-4.62328e-08
2.27603e-10
-4.64484e-08
2.15667e-10
-4.66521e-08
2.03668e-10
-4.68437e-08
1.91592e-10
-4.70231e-08
1.79424e-10
-4.71902e-08
1.67142e-10
-4.7345e-08
1.54717e-10
-4.74871e-08
1.42116e-10
-4.76164e-08
1.29308e-10
-4.77327e-08
1.16264e-10
-4.78356e-08
1.02955e-10
-4.7925e-08
8.93453e-11
-4.80003e-08
7.53926e-11
-4.80614e-08
6.10514e-11
-4.81077e-08
4.62757e-11
-4.81387e-08
3.10258e-11
-4.8154e-08
1.52697e-11
-4.81529e-08
-1.02397e-12
-4.81351e-08
-1.78886e-11
-4.80997e-08
-3.53661e-11
-4.80462e-08
-5.35017e-11
-4.79738e-08
-7.23425e-11
-4.78819e-08
-9.19353e-11
-4.77696e-08
-1.12325e-10
-4.7636e-08
-1.33553e-10
-4.74804e-08
-1.55664e-10
-4.73017e-08
-1.78699e-10
-4.7099e-08
-2.027e-10
-4.68713e-08
-2.27709e-10
-4.66175e-08
-2.53768e-10
-4.63366e-08
-2.80916e-10
-4.60274e-08
-3.09184e-10
-4.56888e-08
-3.38596e-10
-4.53196e-08
-3.69167e-10
-4.49187e-08
-4.00907e-10
-4.44849e-08
-4.33818e-10
-4.4017e-08
-4.67898e-10
-4.35139e-08
-5.03136e-10
-4.29744e-08
-5.39514e-10
-4.23973e-08
-5.77006e-10
-4.17818e-08
-6.15575e-10
-4.11266e-08
-6.55167e-10
-4.04309e-08
-6.95713e-10
-3.96938e-08
-7.37131e-10
-3.89144e-08
-7.79323e-10
-3.80923e-08
-8.22173e-10
-3.72267e-08
-8.65545e-10
-3.63174e-08
-9.09285e-10
-3.53642e-08
-9.53222e-10
-3.43671e-08
-9.9716e-10
-3.33262e-08
-1.04088e-09
-3.2242e-08
-1.08413e-09
-3.11154e-08
-1.12663e-09
-2.99474e-08
-1.16806e-09
-2.87393e-08
-1.20808e-09
-2.7493e-08
-1.24632e-09
-2.62106e-08
-1.28238e-09
-2.48947e-08
-1.31585e-09
-2.35485e-08
-1.34627e-09
-2.21753e-08
-1.37316e-09
-2.07793e-08
-1.39599e-09
-1.93651e-08
-1.41422e-09
-1.79378e-08
-1.42727e-09
-1.65033e-08
-1.43456e-09
-1.50678e-08
-1.43548e-09
-1.36384e-08
-1.42939e-09
-1.22227e-08
-1.41564e-09
-1.08292e-08
-1.39354e-09
-9.46678e-09
-1.36242e-09
-8.14522e-09
-1.32156e-09
-6.87496e-09
-1.27026e-09
-5.66716e-09
-1.20781e-09
-4.53365e-09
-1.13351e-09
-3.48696e-09
-1.04669e-09
-2.54019e-09
-9.46764e-10
-1.70693e-09
-8.33261e-10
-1.00092e-09
-7.06011e-10
-4.35532e-10
-5.65386e-10
-2.26836e-11
-4.12847e-10
2.29415e-10
-2.52098e-10
3.20434e-10
-9.10184e-11
2.66496e-10
5.39393e-11
1.19039e-10
1.47457e-10
1.1904e-10
1.15457e-10
-2.05704e-10
2.43415e-10
-2.78741e-10
2.25957e-10
-6.16131e-11
-2.99705e-11
2.74913e-10
-5.60541e-10
6.64994e-10
-1.37759e-09
1.06846e-09
-2.47584e-09
1.46142e-09
-3.8398e-09
1.83038e-09
-5.44828e-09
2.16815e-09
-7.27721e-09
2.47136e-09
-9.30151e-09
2.739e-09
-1.14962e-08
2.97154e-09
-1.3837e-08
3.17042e-09
-1.63012e-08
3.33767e-09
-1.88674e-08
3.47562e-09
-2.15161e-08
3.58675e-09
-2.42296e-08
3.67357e-09
-2.69918e-08
3.7386e-09
-2.97885e-08
3.78426e-09
-3.2607e-08
3.81281e-09
-3.54362e-08
3.82633e-09
-3.82664e-08
3.82671e-09
-4.10891e-08
3.81571e-09
-4.38969e-08
3.79492e-09
-4.66838e-08
3.76577e-09
-4.94443e-08
3.72954e-09
-5.2174e-08
3.68731e-09
-5.4869e-08
3.64007e-09
-5.75263e-08
3.58867e-09
-6.01433e-08
3.53387e-09
-6.27179e-08
3.47633e-09
-6.52483e-08
3.4166e-09
-6.77333e-08
3.35514e-09
-7.01717e-08
3.2923e-09
-7.25628e-08
3.22839e-09
-7.49059e-08
3.16369e-09
-7.72007e-08
3.09845e-09
-7.94468e-08
3.03286e-09
-8.1644e-08
2.96707e-09
-8.37924e-08
2.90126e-09
-8.5892e-08
2.83554e-09
-8.79429e-08
2.77001e-09
-8.99453e-08
2.70477e-09
-9.18995e-08
2.63988e-09
-9.38057e-08
2.57541e-09
-9.56645e-08
2.51142e-09
-9.7476e-08
2.44795e-09
-9.92409e-08
2.38506e-09
-1.00959e-07
2.3228e-09
-1.02632e-07
2.26121e-09
-1.0426e-07
2.20031e-09
-1.05842e-07
2.14012e-09
-1.07381e-07
2.08067e-09
-1.08876e-07
2.02197e-09
-1.10328e-07
1.96404e-09
-1.11737e-07
1.90688e-09
-1.13104e-07
1.85049e-09
-1.1443e-07
1.79487e-09
-1.15715e-07
1.74001e-09
-1.1696e-07
1.68591e-09
-1.18165e-07
1.63253e-09
-1.19332e-07
1.57986e-09
-1.20459e-07
1.52789e-09
-1.21548e-07
1.47659e-09
-1.226e-07
1.42593e-09
-1.23614e-07
1.37589e-09
-1.24592e-07
1.32642e-09
-1.25533e-07
1.27751e-09
-1.26439e-07
1.22912e-09
-1.27308e-07
1.1812e-09
-1.28143e-07
1.1337e-09
-1.28942e-07
1.08654e-09
-1.29706e-07
1.03965e-09
-1.30436e-07
9.92987e-10
-1.31131e-07
9.46468e-10
-1.31791e-07
9.00015e-10
-1.32417e-07
8.53541e-10
-1.33009e-07
8.06956e-10
-1.33565e-07
7.60173e-10
-1.34087e-07
7.13108e-10
-1.34573e-07
6.65674e-10
-1.35024e-07
6.17775e-10
-1.35438e-07
5.69308e-10
-1.35816e-07
5.20167e-10
-1.36157e-07
4.70242e-10
-1.3646e-07
4.19418e-10
-1.36725e-07
3.67568e-10
-1.3695e-07
3.14554e-10
-1.37135e-07
2.6023e-10
-1.37278e-07
2.04444e-10
-1.37379e-07
1.47047e-10
-1.37436e-07
8.78909e-11
-1.37448e-07
2.6834e-11
-1.37412e-07
-3.62644e-11
-1.37329e-07
-1.0155e-10
-1.37195e-07
-1.69175e-10
-1.37009e-07
-2.39298e-10
-1.36769e-07
-3.12082e-10
-1.36474e-07
-3.87689e-10
-1.3612e-07
-4.66283e-10
-1.35705e-07
-5.48024e-10
-1.35228e-07
-6.33069e-10
-1.34685e-07
-7.21576e-10
-1.34074e-07
-8.13695e-10
-1.33392e-07
-9.09571e-10
-1.32636e-07
-1.00934e-09
-1.31804e-07
-1.11313e-09
-1.30892e-07
-1.22105e-09
-1.29898e-07
-1.33319e-09
-1.28817e-07
-1.44961e-09
-1.27648e-07
-1.57034e-09
-1.26386e-07
-1.69541e-09
-1.25029e-07
-1.82478e-09
-1.23574e-07
-1.95842e-09
-1.22017e-07
-2.09624e-09
-1.20356e-07
-2.23813e-09
-1.18588e-07
-2.38393e-09
-1.1671e-07
-2.53344e-09
-1.14719e-07
-2.6864e-09
-1.12614e-07
-2.8425e-09
-1.10392e-07
-3.00136e-09
-1.08051e-07
-3.16253e-09
-1.05591e-07
-3.3255e-09
-1.03011e-07
-3.48968e-09
-1.0031e-07
-3.65438e-09
-9.74879e-08
-3.81887e-09
-9.45465e-08
-3.98229e-09
-9.1487e-08
-4.14368e-09
-8.83116e-08
-4.30199e-09
-8.50236e-08
-4.45604e-09
-8.16272e-08
-4.60455e-09
-7.81273e-08
-4.74615e-09
-7.45304e-08
-4.87936e-09
-7.08436e-08
-5.00259e-09
-6.70757e-08
-5.11415e-09
-6.32367e-08
-5.21224e-09
-5.93377e-08
-5.29493e-09
-5.53917e-08
-5.36019e-09
-5.14131e-08
-5.40594e-09
-4.74176e-08
-5.42999e-09
-4.3423e-08
-5.4301e-09
-3.94485e-08
-5.40394e-09
-3.5515e-08
-5.34913e-09
-3.16453e-08
-5.26327e-09
-2.78638e-08
-5.1439e-09
-2.41967e-08
-4.9886e-09
-2.0672e-08
-4.79499e-09
-1.73191e-08
-4.56077e-09
-1.41687e-08
-4.28384e-09
-1.1253e-08
-3.96238e-09
-8.60469e-09
-3.5951e-09
-6.2564e-09
-3.18155e-09
-4.23965e-09
-2.72276e-09
-2.58282e-09
-2.22222e-09
-1.30797e-09
-1.68769e-09
-4.25709e-10
-1.13436e-09
7.36299e-11
-5.90356e-10
2.33095e-10
-1.05526e-10
1.47326e-10
2.33226e-10
2.66364e-10
8.28203e-11
-2.88526e-10
5.30763e-11
-2.49e-10
-2.28905e-10
2.20369e-10
-8.60966e-10
9.06974e-10
-1.89179e-09
1.69582e-09
-3.33858e-09
2.51524e-09
-5.19686e-09
3.3197e-09
-7.44796e-09
4.08149e-09
-1.00643e-08
4.78451e-09
-1.30132e-08
5.42028e-09
-1.62596e-08
5.98534e-09
-1.97675e-08
6.4795e-09
-2.35019e-08
6.90478e-09
-2.74288e-08
7.26458e-09
-3.15164e-08
7.56318e-09
-3.5735e-08
7.80532e-09
-4.00574e-08
7.99597e-09
-4.44588e-08
8.14009e-09
-4.89172e-08
8.24257e-09
-5.34124e-08
8.30804e-09
-5.79269e-08
8.34084e-09
-6.24452e-08
8.34498e-09
-6.69537e-08
8.32419e-09
-7.14406e-08
8.28183e-09
-7.58957e-08
8.22094e-09
-8.03105e-08
8.14426e-09
-8.46773e-08
8.05419e-09
-8.89901e-08
7.95283e-09
-9.32435e-08
7.84207e-09
-9.74332e-08
7.72354e-09
-1.01556e-07
7.59868e-09
-1.05608e-07
7.46867e-09
-1.09587e-07
7.33454e-09
-1.13492e-07
7.19717e-09
-1.17321e-07
7.05728e-09
-1.21073e-07
6.91549e-09
-1.24746e-07
6.77234e-09
-1.28342e-07
6.62829e-09
-1.31859e-07
6.48374e-09
-1.35296e-07
6.33903e-09
-1.38655e-07
6.19442e-09
-1.41935e-07
6.05018e-09
-1.45137e-07
5.90653e-09
-1.48261e-07
5.76362e-09
-1.51307e-07
5.6216e-09
-1.54276e-07
5.48061e-09
-1.57169e-07
5.34079e-09
-1.59986e-07
5.20223e-09
-1.62728e-07
5.06502e-09
-1.65397e-07
4.92927e-09
-1.67991e-07
4.79503e-09
-1.70513e-07
4.66236e-09
-1.72964e-07
4.5313e-09
-1.75344e-07
4.40189e-09
-1.77654e-07
4.27417e-09
-1.79895e-07
4.14814e-09
-1.82069e-07
4.02381e-09
-1.84175e-07
3.90118e-09
-1.86215e-07
3.78023e-09
-1.8819e-07
3.66095e-09
-1.90101e-07
3.54329e-09
-1.91948e-07
3.42721e-09
-1.93733e-07
3.31268e-09
-1.95456e-07
3.19963e-09
-1.97118e-07
3.08802e-09
-1.9872e-07
2.97777e-09
-2.00263e-07
2.86881e-09
-2.01746e-07
2.76105e-09
-2.03171e-07
2.65441e-09
-2.04539e-07
2.54879e-09
-2.05849e-07
2.44405e-09
-2.07103e-07
2.34007e-09
-2.083e-07
2.23671e-09
-2.09441e-07
2.13383e-09
-2.10526e-07
2.03126e-09
-2.11554e-07
1.92884e-09
-2.12527e-07
1.82639e-09
-2.13444e-07
1.72372e-09
-2.14305e-07
1.62065e-09
-2.15108e-07
1.51697e-09
-2.15855e-07
1.41249e-09
-2.16544e-07
1.307e-09
-2.17175e-07
1.20027e-09
-2.17747e-07
1.09208e-09
-2.18259e-07
9.82165e-10
-2.1871e-07
8.70286e-10
-2.19099e-07
7.56165e-10
-2.19424e-07
6.39515e-10
-2.19683e-07
5.20035e-10
-2.19876e-07
3.97415e-10
-2.20001e-07
2.71342e-10
-2.20054e-07
1.41504e-10
-2.20035e-07
7.58769e-12
-2.19941e-07
-1.30723e-10
-2.19768e-07
-2.7375e-10
-2.19516e-07
-4.21822e-10
-2.1918e-07
-5.75275e-10
-2.18757e-07
-7.34449e-10
-2.18245e-07
-8.99685e-10
-2.1764e-07
-1.07132e-09
-2.16939e-07
-1.24971e-09
-2.16137e-07
-1.43517e-09
-2.1523e-07
-1.62802e-09
-2.14215e-07
-1.82859e-09
-2.13088e-07
-2.03716e-09
-2.11843e-07
-2.25402e-09
-2.10477e-07
-2.47941e-09
-2.08984e-07
-2.71355e-09
-2.07361e-07
-2.95662e-09
-2.05602e-07
-3.20874e-09
-2.03702e-07
-3.46999e-09
-2.01657e-07
-3.74039e-09
-1.99462e-07
-4.01991e-09
-1.97112e-07
-4.30844e-09
-1.94602e-07
-4.60579e-09
-1.91929e-07
-4.91171e-09
-1.89087e-07
-5.22584e-09
-1.86073e-07
-5.54773e-09
-1.82882e-07
-5.87682e-09
-1.79512e-07
-6.21241e-09
-1.7596e-07
-6.55368e-09
-1.72223e-07
-6.89967e-09
-1.68299e-07
-7.24924e-09
-1.64188e-07
-7.60112e-09
-1.59888e-07
-7.95384e-09
-1.55401e-07
-8.30575e-09
-1.50729e-07
-8.65501e-09
-1.45873e-07
-8.99956e-09
-1.40838e-07
-9.33714e-09
-1.35628e-07
-9.66522e-09
-1.30252e-07
-9.9811e-09
-1.24716e-07
-1.02818e-08
-1.19031e-07
-1.05642e-08
-1.13209e-07
-1.0825e-08
-1.07263e-07
-1.10603e-08
-1.01208e-07
-1.12665e-08
-9.50638e-08
-1.14395e-08
-8.88489e-08
-1.1575e-08
-8.25863e-08
-1.16686e-08
-7.63007e-08
-1.17156e-08
-7.00194e-08
-1.17114e-08
-6.37723e-08
-1.16511e-08
-5.75917e-08
-1.15297e-08
-5.15126e-08
-1.13423e-08
-4.55725e-08
-1.1084e-08
-3.98111e-08
-1.075e-08
-3.42707e-08
-1.03355e-08
-2.89952e-08
-9.83623e-09
-2.40305e-08
-9.24853e-09
-1.94234e-08
-8.56949e-09
-1.52209e-08
-7.79765e-09
-1.14688e-08
-6.93365e-09
-8.20999e-09
-5.98154e-09
-5.48148e-09
-4.95073e-09
-3.31002e-09
-3.85915e-09
-1.70591e-09
-2.73847e-09
-6.5399e-10
-1.64228e-09
-1.01881e-10
-6.57635e-10
5.48551e-11
7.64915e-11
3.21218e-10
-1.41823e-11
-2.7434e-10
-2.71995e-10
8.81264e-12
-9.04167e-10
8.52536e-10
-1.9965e-09
1.9993e-09
-3.59508e-09
3.2944e-09
-5.7159e-09
4.63606e-09
-8.35279e-09
5.95658e-09
-1.1484e-08
7.2127e-09
-1.50774e-08
8.37786e-09
-1.90941e-08
9.43705e-09
-2.3492e-08
1.03832e-08
-2.82272e-08
1.12147e-08
-3.32562e-08
1.19338e-08
-3.85366e-08
1.2545e-08
-4.40282e-08
1.30547e-08
-4.96931e-08
1.34702e-08
-5.54963e-08
1.37991e-08
-6.14057e-08
1.40495e-08
-6.73921e-08
1.4229e-08
-7.34295e-08
1.43454e-08
-7.94944e-08
1.44058e-08
-8.55663e-08
1.44168e-08
-9.16268e-08
1.43847e-08
-9.76602e-08
1.43152e-08
-1.03653e-07
1.42133e-08
-1.09592e-07
1.40838e-08
-1.15468e-07
1.39306e-08
-1.21273e-07
1.37576e-08
-1.26999e-07
1.35679e-08
-1.3264e-07
1.33642e-08
-1.3819e-07
1.31491e-08
-1.43646e-07
1.29247e-08
-1.49004e-07
1.26928e-08
-1.54262e-07
1.24549e-08
-1.59417e-07
1.22123e-08
-1.64468e-07
1.19662e-08
-1.69413e-07
1.17176e-08
-1.74252e-07
1.14672e-08
-1.78984e-07
1.12158e-08
-1.83609e-07
1.09639e-08
-1.88127e-07
1.07122e-08
-1.92538e-07
1.04609e-08
-1.96842e-07
1.02107e-08
-2.0104e-07
9.96161e-09
-2.05132e-07
9.71411e-09
-2.0912e-07
9.46839e-09
-2.13004e-07
9.22467e-09
-2.16785e-07
8.98314e-09
-2.20464e-07
8.74397e-09
-2.24042e-07
8.50732e-09
-2.2752e-07
8.2733e-09
-2.309e-07
8.04201e-09
-2.34182e-07
7.81354e-09
-2.37368e-07
7.58795e-09
-2.40459e-07
7.36529e-09
-2.43457e-07
7.1456e-09
-2.46362e-07
6.92887e-09
-2.49176e-07
6.71511e-09
-2.519e-07
6.5043e-09
-2.54535e-07
6.29639e-09
-2.57083e-07
6.09134e-09
-2.59545e-07
5.88906e-09
-2.61922e-07
5.68949e-09
-2.64215e-07
5.49254e-09
-2.66425e-07
5.29809e-09
-2.68553e-07
5.10602e-09
-2.706e-07
4.9162e-09
-2.72568e-07
4.72848e-09
-2.74456e-07
4.54269e-09
-2.76266e-07
4.35865e-09
-2.77998e-07
4.17614e-09
-2.79653e-07
3.99496e-09
-2.81231e-07
3.81484e-09
-2.82733e-07
3.63556e-09
-2.84158e-07
3.45683e-09
-2.85508e-07
3.27837e-09
-2.86781e-07
3.09987e-09
-2.87979e-07
2.92103e-09
-2.891e-07
2.74151e-09
-2.90144e-07
2.56097e-09
-2.9111e-07
2.37907e-09
-2.91999e-07
2.19542e-09
-2.92808e-07
2.00965e-09
-2.93537e-07
1.82135e-09
-2.94185e-07
1.6301e-09
-2.9475e-07
1.43545e-09
-2.95231e-07
1.23695e-09
-2.95626e-07
1.03411e-09
-2.95932e-07
8.26429e-10
-2.96148e-07
6.13389e-10
-2.96271e-07
3.94467e-10
-2.96299e-07
1.69131e-10
-2.96228e-07
-6.31556e-11
-2.96056e-07
-3.02936e-10
-2.95779e-07
-5.50763e-10
-2.95393e-07
-8.07198e-10
-2.94896e-07
-1.07281e-09
-2.94282e-07
-1.34817e-09
-2.93548e-07
-1.63386e-09
-2.92689e-07
-1.93044e-09
-2.917e-07
-2.23848e-09
-2.90577e-07
-2.55854e-09
-2.89314e-07
-2.89115e-09
-2.87905e-07
-3.23683e-09
-2.86347e-07
-3.59606e-09
-2.84631e-07
-3.96929e-09
-2.82754e-07
-4.35694e-09
-2.80708e-07
-4.75933e-09
-2.78488e-07
-5.17677e-09
-2.76087e-07
-5.60946e-09
-2.735e-07
-6.05751e-09
-2.70719e-07
-6.52097e-09
-2.67739e-07
-6.99975e-09
-2.64554e-07
-7.49366e-09
-2.61157e-07
-8.00237e-09
-2.57544e-07
-8.52544e-09
-2.53707e-07
-9.06223e-09
-2.49643e-07
-9.61196e-09
-2.45346e-07
-1.01736e-08
-2.40812e-07
-1.07461e-08
-2.36038e-07
-1.13278e-08
-2.31021e-07
-1.19173e-08
-2.25758e-07
-1.25124e-08
-2.20248e-07
-1.31111e-08
-2.14491e-07
-1.37107e-08
-2.08488e-07
-1.43086e-08
-2.02241e-07
-1.49014e-08
-1.95755e-07
-1.54858e-08
-1.89034e-07
-1.60578e-08
-1.82086e-07
-1.66132e-08
-1.7492e-07
-1.71474e-08
-1.67547e-07
-1.76553e-08
-1.59979e-07
-1.81316e-08
-1.52234e-07
-1.85706e-08
-1.44328e-07
-1.89661e-08
-1.36283e-07
-1.93117e-08
-1.28122e-07
-1.96005e-08
-1.19871e-07
-1.98253e-08
-1.11561e-07
-1.99787e-08
-1.03224e-07
-2.00531e-08
-9.48946e-08
-2.00406e-08
-8.66126e-08
-1.9933e-08
-7.84199e-08
-1.97224e-08
-7.03616e-08
-1.94006e-08
-6.24859e-08
-1.89597e-08
-5.48439e-08
-1.8392e-08
-4.74891e-08
-1.76903e-08
-4.04772e-08
-1.68481e-08
-3.38655e-08
-1.58602e-08
-2.77119e-08
-1.47231e-08
-2.20738e-08
-1.34358e-08
-1.70063e-08
-1.20011e-08
-1.256e-08
-1.04278e-08
-8.77765e-09
-8.73311e-09
-5.6896e-09
-6.94719e-09
-3.30815e-09
-5.11992e-09
-1.61983e-09
-3.33059e-09
-5.76788e-10
-1.70068e-09
-8.71677e-11
-4.13128e-10
2.34053e-10
-1.28272e-10
-1.46067e-10
-6.61347e-10
5.41887e-10
-1.69685e-09
1.88804e-09
-3.30103e-09
3.60348e-09
-5.50935e-09
5.50273e-09
-8.33142e-09
7.45812e-09
-1.17566e-08
9.38171e-09
-1.57589e-08
1.12151e-08
-2.03021e-08
1.2921e-08
-2.53424e-08
1.44773e-08
-3.08319e-08
1.58728e-08
-3.6721e-08
1.71038e-08
-4.29596e-08
1.81724e-08
-4.94988e-08
1.90841e-08
-5.62914e-08
1.98474e-08
-6.32932e-08
2.0472e-08
-7.04627e-08
2.09687e-08
-7.77618e-08
2.13485e-08
-8.51555e-08
2.16228e-08
-9.26124e-08
2.18023e-08
-1.00104e-07
2.18974e-08
-1.07605e-07
2.1918e-08
-1.15094e-07
2.18732e-08
-1.2255e-07
2.17714e-08
-1.29957e-07
2.16202e-08
-1.373e-07
2.14265e-08
-1.44565e-07
2.11964e-08
-1.51743e-07
2.09356e-08
-1.58824e-07
2.06488e-08
-1.658e-07
2.03403e-08
-1.72665e-07
2.00139e-08
-1.79413e-07
1.96727e-08
-1.8604e-07
1.93196e-08
-1.92542e-07
1.89569e-08
-1.98916e-07
1.85868e-08
-2.05161e-07
1.8211e-08
-2.11275e-07
1.7831e-08
-2.17256e-07
1.74481e-08
-2.23103e-07
1.70635e-08
-2.28817e-07
1.6678e-08
-2.34398e-07
1.62925e-08
-2.39844e-07
1.59077e-08
-2.45158e-07
1.55243e-08
-2.50339e-07
1.51427e-08
-2.55388e-07
1.47634e-08
-2.60307e-07
1.43869e-08
-2.65096e-07
1.40134e-08
-2.69756e-07
1.36432e-08
-2.74288e-07
1.32767e-08
-2.78695e-07
1.2914e-08
-2.82977e-07
1.25554e-08
-2.87136e-07
1.22009e-08
-2.91173e-07
1.18508e-08
-2.95091e-07
1.15052e-08
-2.98889e-07
1.1164e-08
-3.02571e-07
1.08274e-08
-3.06138e-07
1.04954e-08
-3.0959e-07
1.01679e-08
-3.12931e-07
9.84496e-09
-3.16161e-07
9.5265e-09
-3.19282e-07
9.21243e-09
-3.22296e-07
8.90266e-09
-3.25203e-07
8.59705e-09
-3.28006e-07
8.29547e-09
-3.30706e-07
7.99774e-09
-3.33304e-07
7.70367e-09
-3.35801e-07
7.41304e-09
-3.38198e-07
7.12564e-09
-3.40496e-07
6.84119e-09
-3.42697e-07
6.55941e-09
-3.44801e-07
6.27999e-09
-3.46808e-07
6.00258e-09
-3.4872e-07
5.72682e-09
-3.50537e-07
5.45234e-09
-3.52259e-07
5.17872e-09
-3.53886e-07
4.90553e-09
-3.55419e-07
4.63232e-09
-3.56856e-07
4.35861e-09
-3.58199e-07
4.0839e-09
-3.59445e-07
3.80768e-09
-3.60596e-07
3.5294e-09
-3.61649e-07
3.24851e-09
-3.62604e-07
2.96441e-09
-3.63459e-07
2.67649e-09
-3.64213e-07
2.38411e-09
-3.64864e-07
2.08661e-09
-3.6541e-07
1.78329e-09
-3.65849e-07
1.47342e-09
-3.66179e-07
1.15628e-09
-3.66397e-07
8.31077e-10
-3.665e-07
4.97046e-10
-3.66484e-07
1.53389e-10
-3.66346e-07
-2.007e-10
-3.66083e-07
-5.66041e-10
-3.65691e-07
-9.43462e-10
-3.65164e-07
-1.33381e-09
-3.64499e-07
-1.73792e-09
-3.6369e-07
-2.15666e-09
-3.62733e-07
-2.59088e-09
-3.61622e-07
-3.04141e-09
-3.60352e-07
-3.5091e-09
-3.58915e-07
-3.99476e-09
-3.57307e-07
-4.49919e-09
-3.55521e-07
-5.02313e-09
-3.5355e-07
-5.56729e-09
-3.51387e-07
-6.13233e-09
-3.49025e-07
-6.71883e-09
-3.46457e-07
-7.32729e-09
-3.43676e-07
-7.95812e-09
-3.40674e-07
-8.61161e-09
-3.37443e-07
-9.28793e-09
-3.33977e-07
-9.98712e-09
-3.30268e-07
-1.0709e-08
-3.26308e-07
-1.14534e-08
-3.22091e-07
-1.22196e-08
-3.17609e-07
-1.30071e-08
-3.12856e-07
-1.38148e-08
-3.07827e-07
-1.46416e-08
-3.02514e-07
-1.54859e-08
-2.96915e-07
-1.6346e-08
-2.91023e-07
-1.72195e-08
-2.84836e-07
-1.81041e-08
-2.78352e-07
-1.89969e-08
-2.71568e-07
-1.98943e-08
-2.64486e-07
-2.07927e-08
-2.57107e-07
-2.16879e-08
-2.49433e-07
-2.2575e-08
-2.4147e-07
-2.34488e-08
-2.33225e-07
-2.43034e-08
-2.24706e-07
-2.51326e-08
-2.15924e-07
-2.59293e-08
-2.06893e-07
-2.66862e-08
-1.97629e-07
-2.73953e-08
-1.88152e-07
-2.80478e-08
-1.78483e-07
-2.86348e-08
-1.68648e-07
-2.91466e-08
-1.58676e-07
-2.9573e-08
-1.48598e-07
-2.99034e-08
-1.3845e-07
-3.0127e-08
-1.2827e-07
-3.02323e-08
-1.18103e-07
-3.02078e-08
-1.07994e-07
-3.00419e-08
-9.7994e-08
-2.97227e-08
-8.8156e-08
-2.92387e-08
-7.85373e-08
-2.85785e-08
-6.91979e-08
-2.77314e-08
-6.02006e-08
-2.66875e-08
-5.16103e-08
-2.54384e-08
-4.3493e-08
-2.39775e-08
-3.59151e-08
-2.2301e-08
-2.89418e-08
-2.04091e-08
-2.26352e-08
-1.83078e-08
-1.70516e-08
-1.60114e-08
-1.2239e-08
-1.35458e-08
-8.23225e-09
-1.09539e-08
-5.04904e-09
-8.30313e-09
-2.68407e-09
-5.69556e-09
-1.10401e-09
-3.28074e-09
-2.43126e-10
-1.27401e-09
-9.07215e-12
-2.47336e-10
1.01269e-10
-1.0733e-09
1.36786e-09
-2.53666e-09
3.3514e-09
-4.67813e-09
5.74495e-09
-7.51689e-09
8.34148e-09
-1.1052e-08
1.09932e-08
-1.52654e-08
1.35951e-08
-2.01258e-08
1.60755e-08
-2.55919e-08
1.83871e-08
-3.16155e-08
2.05009e-08
-3.81439e-08
2.24012e-08
-4.51225e-08
2.40824e-08
-5.24961e-08
2.5546e-08
-6.02104e-08
2.67985e-08
-6.82132e-08
2.78502e-08
-7.64547e-08
2.87135e-08
-8.48883e-08
2.94022e-08
-9.34706e-08
2.99309e-08
-1.02162e-07
3.03143e-08
-1.10927e-07
3.05668e-08
-1.19732e-07
3.07025e-08
-1.28548e-07
3.07344e-08
-1.3735e-07
3.06751e-08
-1.46114e-07
3.05359e-08
-1.54821e-07
3.03273e-08
-1.63454e-07
3.00587e-08
-1.71996e-07
2.97388e-08
-1.80436e-07
2.93751e-08
-1.88761e-07
2.89744e-08
-1.96964e-07
2.85426e-08
-2.05035e-07
2.80851e-08
-2.12968e-07
2.76063e-08
-2.20759e-07
2.71102e-08
-2.28402e-07
2.66002e-08
-2.35895e-07
2.60792e-08
-2.43233e-07
2.55499e-08
-2.50417e-07
2.50143e-08
-2.57443e-07
2.44744e-08
-2.64311e-07
2.39317e-08
-2.71021e-07
2.33878e-08
-2.77572e-07
2.28436e-08
-2.83965e-07
2.23004e-08
-2.902e-07
2.17589e-08
-2.96277e-07
2.122e-08
-3.02198e-07
2.06843e-08
-3.07963e-07
2.01524e-08
-3.13575e-07
1.96248e-08
-3.19033e-07
1.9102e-08
-3.24341e-07
1.85843e-08
-3.29499e-07
1.8072e-08
-3.34509e-07
1.75656e-08
-3.39373e-07
1.7065e-08
-3.44093e-07
1.65706e-08
-3.4867e-07
1.60826e-08
-3.53107e-07
1.56009e-08
-3.57406e-07
1.51257e-08
-3.61567e-07
1.4657e-08
-3.65594e-07
1.41947e-08
-3.69488e-07
1.37389e-08
-3.73251e-07
1.32895e-08
-3.76885e-07
1.28463e-08
-3.80391e-07
1.24092e-08
-3.83772e-07
1.1978e-08
-3.87029e-07
1.15525e-08
-3.90164e-07
1.11325e-08
-3.93178e-07
1.07177e-08
-3.96073e-07
1.03078e-08
-3.9885e-07
9.90241e-09
-4.0151e-07
9.50121e-09
-4.04054e-07
9.10379e-09
-4.06484e-07
8.7097e-09
-4.088e-07
8.31847e-09
-4.11002e-07
7.92959e-09
-4.13093e-07
7.54252e-09
-4.15071e-07
7.1567e-09
-4.16937e-07
6.77152e-09
-4.18691e-07
6.38634e-09
-4.20333e-07
6.00051e-09
-4.21862e-07
5.61332e-09
-4.23278e-07
5.22405e-09
-4.24581e-07
4.83194e-09
-4.25769e-07
4.43622e-09
-4.2684e-07
4.03604e-09
-4.27794e-07
3.63055e-09
-4.28629e-07
3.21887e-09
-4.29342e-07
2.80007e-09
-4.29932e-07
2.37318e-09
-4.30396e-07
1.93721e-09
-4.30731e-07
1.49114e-09
-4.30934e-07
1.03391e-09
-4.31001e-07
5.6444e-10
-4.30929e-07
8.16411e-11
-4.30715e-07
-4.15607e-10
-4.30352e-07
-9.28436e-10
-4.29838e-07
-1.45799e-09
-4.29166e-07
-2.00544e-09
-4.28332e-07
-2.57195e-09
-4.2733e-07
-3.1587e-09
-4.26154e-07
-3.76684e-09
-4.24798e-07
-4.39754e-09
-4.23255e-07
-5.05195e-09
-4.21519e-07
-5.73116e-09
-4.19582e-07
-6.43626e-09
-4.17436e-07
-7.16828e-09
-4.15076e-07
-7.92816e-09
-4.12491e-07
-8.71679e-09
-4.09675e-07
-9.53496e-09
-4.06619e-07
-1.03833e-08
-4.03315e-07
-1.12625e-08
-3.99753e-07
-1.21727e-08
-3.95927e-07
-1.31143e-08
-3.91827e-07
-1.40873e-08
-3.87445e-07
-1.50914e-08
-3.82772e-07
-1.61263e-08
-3.778e-07
-1.71912e-08
-3.72522e-07
-1.82851e-08
-3.6693e-07
-1.94066e-08
-3.61018e-07
-2.05541e-08
-3.54778e-07
-2.17254e-08
-3.48206e-07
-2.2918e-08
-3.41297e-07
-2.41288e-08
-3.34047e-07
-2.53544e-08
-3.26453e-07
-2.65906e-08
-3.18514e-07
-2.78328e-08
-3.10231e-07
-2.90758e-08
-3.01606e-07
-3.03135e-08
-2.92641e-07
-3.15395e-08
-2.83344e-07
-3.27463e-08
-2.73721e-07
-3.3926e-08
-2.63784e-07
-3.50698e-08
-2.53545e-07
-3.61682e-08
-2.4302e-07
-3.72108e-08
-2.32229e-07
-3.81865e-08
-2.21193e-07
-3.90837e-08
-2.09938e-07
-3.98897e-08
-1.98494e-07
-4.05912e-08
-1.86892e-07
-4.11746e-08
-1.7517e-07
-4.16252e-08
-1.63369e-07
-4.19281e-08
-1.51534e-07
-4.20679e-08
-1.39712e-07
-4.20292e-08
-1.27958e-07
-4.17959e-08
-1.16328e-07
-4.13526e-08
-1.04883e-07
-4.06836e-08
-9.36876e-08
-3.97742e-08
-8.28084e-08
-3.86105e-08
-7.2316e-08
-3.71799e-08
-6.22824e-08
-3.5472e-08
-5.27807e-08
-3.34792e-08
-4.3884e-08
-3.11977e-08
-3.56634e-08
-2.86296e-08
-2.81869e-08
-2.57843e-08
-2.15164e-08
-2.26819e-08
-1.5705e-08
-1.93571e-08
-1.07943e-08
-1.58646e-08
-6.81045e-09
-1.2287e-08
-3.76127e-09
-8.74474e-09
-1.6343e-09
-5.40772e-09
-3.96662e-10
-2.51164e-09
-4.05734e-10
-3.64042e-10
4.65312e-10
-1.48376e-09
2.48757e-09
-3.37931e-09
5.24694e-09
-6.0635e-09
8.42913e-09
-9.53595e-09
1.18139e-08
-1.37821e-08
1.52394e-08
-1.87744e-08
1.85875e-08
-2.44744e-08
2.17755e-08
-3.0835e-08
2.47478e-08
-3.78032e-08
2.7469e-08
-4.53218e-08
2.99198e-08
-5.33318e-08
3.20924e-08
-6.17736e-08
3.39878e-08
-7.05887e-08
3.56136e-08
-7.97204e-08
3.69818e-08
-8.91144e-08
3.81075e-08
-9.872e-08
3.90077e-08
-1.0849e-07
3.97005e-08
-1.1838e-07
4.02043e-08
-1.2835e-07
4.05373e-08
-1.38365e-07
4.07173e-08
-1.48392e-07
4.0761e-08
-1.58401e-07
4.06845e-08
-1.68368e-07
4.05025e-08
-1.78269e-07
4.02284e-08
-1.88085e-07
3.98746e-08
-1.97798e-07
3.94523e-08
-2.07394e-07
3.89714e-08
-2.16861e-07
3.84409e-08
-2.26187e-07
3.78685e-08
-2.35363e-07
3.72613e-08
-2.44382e-07
3.66252e-08
-2.53237e-07
3.59656e-08
-2.61924e-07
3.5287e-08
-2.70438e-07
3.45934e-08
-2.78777e-07
3.38881e-08
-2.86937e-07
3.31743e-08
-2.94916e-07
3.24543e-08
-3.02715e-07
3.17304e-08
-3.10332e-07
3.10046e-08
-3.17767e-07
3.02784e-08
-3.2502e-07
2.95533e-08
-3.32091e-07
2.88304e-08
-3.38982e-07
2.81109e-08
-3.45694e-07
2.73957e-08
-3.52227e-07
2.66856e-08
-3.58583e-07
2.59812e-08
-3.64764e-07
2.52832e-08
-3.70772e-07
2.45921e-08
-3.76608e-07
2.39083e-08
-3.82275e-07
2.32322e-08
-3.87774e-07
2.25642e-08
-3.93108e-07
2.19044e-08
-3.98278e-07
2.12531e-08
-4.03288e-07
2.06104e-08
-4.08139e-07
1.99765e-08
-4.12833e-07
1.93512e-08
-4.17373e-07
1.87347e-08
-4.21761e-07
1.81268e-08
-4.25999e-07
1.75274e-08
-4.30089e-07
1.69365e-08
-4.34033e-07
1.63537e-08
-4.37834e-07
1.57789e-08
-4.41494e-07
1.52117e-08
-4.45013e-07
1.46519e-08
-4.48394e-07
1.4099e-08
-4.51639e-07
1.35527e-08
-4.54749e-07
1.30125e-08
-4.57726e-07
1.24779e-08
-4.60571e-07
1.19484e-08
-4.63284e-07
1.14233e-08
-4.65868e-07
1.09021e-08
-4.68322e-07
1.0384e-08
-4.70648e-07
9.86841e-09
-4.72846e-07
9.3545e-09
-4.74916e-07
8.84149e-09
-4.76858e-07
8.32854e-09
-4.78672e-07
7.81479e-09
-4.80358e-07
7.29929e-09
-4.81915e-07
6.7811e-09
-4.83343e-07
6.25922e-09
-4.84639e-07
5.7326e-09
-4.85803e-07
5.20015e-09
-4.86833e-07
4.66075e-09
-4.87728e-07
4.11322e-09
-4.88484e-07
3.55633e-09
-4.891e-07
2.98884e-09
-4.89572e-07
2.40945e-09
-4.89898e-07
1.8168e-09
-4.90073e-07
1.20953e-09
-4.90095e-07
5.8623e-10
-4.89959e-07
-5.45387e-11
-4.8966e-07
-7.14235e-10
-4.89194e-07
-1.39434e-09
-4.88556e-07
-2.09636e-09
-4.8774e-07
-2.8218e-09
-4.86739e-07
-3.5722e-09
-4.85549e-07
-4.34907e-09
-4.84162e-07
-5.15395e-09
-4.82571e-07
-5.98832e-09
-4.80769e-07
-6.85369e-09
-4.78749e-07
-7.75147e-09
-4.76502e-07
-8.68306e-09
-4.74021e-07
-9.64979e-09
-4.71296e-07
-1.06529e-08
-4.68319e-07
-1.16935e-08
-4.65082e-07
-1.27726e-08
-4.61574e-07
-1.3891e-08
-4.57787e-07
-1.50495e-08
-4.53711e-07
-1.62485e-08
-4.49337e-07
-1.74883e-08
-4.44656e-07
-1.87689e-08
-4.39657e-07
-2.00901e-08
-4.34332e-07
-2.14511e-08
-4.28672e-07
-2.28511e-08
-4.22669e-07
-2.42887e-08
-4.16313e-07
-2.57622e-08
-4.09598e-07
-2.72691e-08
-4.02517e-07
-2.88068e-08
-3.95063e-07
-3.03718e-08
-3.87231e-07
-3.19603e-08
-3.79018e-07
-3.35674e-08
-3.70421e-07
-3.51879e-08
-3.61438e-07
-3.68156e-08
-3.5207e-07
-3.84437e-08
-3.4232e-07
-4.00642e-08
-3.32191e-07
-4.16687e-08
-3.21689e-07
-4.32474e-08
-3.10826e-07
-4.47899e-08
-2.99611e-07
-4.62848e-08
-2.88059e-07
-4.77194e-08
-2.7619e-07
-4.90804e-08
-2.64023e-07
-5.03533e-08
-2.51584e-07
-5.15228e-08
-2.38901e-07
-5.25726e-08
-2.26007e-07
-5.34854e-08
-2.12938e-07
-5.42433e-08
-1.99736e-07
-5.48275e-08
-1.86445e-07
-5.52189e-08
-1.73115e-07
-5.53976e-08
-1.59801e-07
-5.53437e-08
-1.4656e-07
-5.50369e-08
-1.33455e-07
-5.44575e-08
-1.20552e-07
-5.35859e-08
-1.07923e-07
-5.24036e-08
-9.56401e-08
-5.08935e-08
-8.37795e-08
-4.90405e-08
-7.24194e-08
-4.68322e-08
-6.16385e-08
-4.426e-08
-5.15155e-08
-4.13208e-08
-4.21269e-08
-3.80181e-08
-3.35461e-08
-3.43652e-08
-2.58405e-08
-3.03875e-08
-1.90697e-08
-2.61278e-08
-1.32835e-08
-2.16508e-08
-8.51934e-09
-1.70512e-08
-4.80144e-09
-1.24626e-08
-2.14123e-09
-8.06792e-09
-5.40423e-10
-4.11244e-09
-9.46155e-10
-4.74705e-10
9.40014e-10
-1.8793e-09
3.89217e-09
-4.19817e-09
7.56581e-09
-7.4163e-09
1.16473e-08
-1.15124e-08
1.59101e-08
-1.64566e-08
2.01835e-08
-2.22099e-08
2.43408e-08
-2.87255e-08
2.82911e-08
-3.59496e-08
3.19719e-08
-4.38238e-08
3.53432e-08
-5.22863e-08
3.83823e-08
-6.12739e-08
4.10799e-08
-7.07231e-08
4.3437e-08
-8.05714e-08
4.5462e-08
-9.07585e-08
4.71689e-08
-1.01226e-07
4.85755e-08
-1.11921e-07
4.97021e-08
-1.22791e-07
5.05704e-08
-1.33789e-07
5.12026e-08
-1.44873e-07
5.1621e-08
-1.56002e-07
5.18471e-08
-1.67143e-07
5.19017e-08
-1.78263e-07
5.18043e-08
-1.89334e-07
5.15732e-08
-2.0033e-07
5.12253e-08
-2.11232e-07
5.07759e-08
-2.22018e-07
5.0239e-08
-2.32674e-07
4.9627e-08
-2.43184e-07
4.89514e-08
-2.53538e-07
4.82218e-08
-2.63724e-07
4.74472e-08
-2.73734e-07
4.66353e-08
-2.83561e-07
4.57927e-08
-2.93199e-07
4.49254e-08
-3.02644e-07
4.40385e-08
-3.11893e-07
4.31363e-08
-3.20941e-07
4.22227e-08
-3.29788e-07
4.13011e-08
-3.38432e-07
4.03742e-08
-3.46872e-07
3.94446e-08
-3.55108e-07
3.85144e-08
-3.6314e-07
3.75854e-08
-3.70969e-07
3.66594e-08
-3.78595e-07
3.57375e-08
-3.86021e-07
3.48212e-08
-3.93247e-07
3.39113e-08
-4.00274e-07
3.30089e-08
-4.07106e-07