/*--------------------------------*- C++ -*----------------------------------*\
  =========                 |
  \\      /  F ield         | OpenFOAM: The Open Source CFD Toolbox
   \\    /   O peration     | Website:  https://openfoam.org
    \\  /    A nd           | Version:  7
     \\/     M anipulation  |
\*---------------------------------------------------------------------------*/
FoamFile
{
    version     2.0;
    format      ascii;
    class       volVectorField;
    location    "0.0375";
    object      U;
}
// * * * * * * * * * * * * * * * * * * * * * * * * * * * * * * * * * * * * * //

dimensions      [0 1 -1 0 0 0 0];

internalField   nonuniform List<vector> 
12800
(
(3.69416e-06 -1.1171e-05 0)
(2.71192e-05 -1.64488e-05 0)
(4.56189e-05 -1.03072e-05 0)
(5.40402e-05 -4.05589e-06 0)
(4.17758e-05 2.71264e-06 0)
(1.07967e-05 9.25409e-06 0)
(-3.86106e-05 1.52942e-05 0)
(-0.000105301 2.07338e-05 0)
(-0.000187754 2.5545e-05 0)
(-0.000284299 2.97378e-05 0)
(-0.000393242 3.33364e-05 0)
(-0.000512924 3.63773e-05 0)
(-0.000641778 3.89123e-05 0)
(-0.000778341 4.09914e-05 0)
(-0.000921266 4.26548e-05 0)
(-0.00106932 4.39449e-05 0)
(-0.0012214 4.49134e-05 0)
(-0.00137653 4.56146e-05 0)
(-0.00153383 4.60922e-05 0)
(-0.00169255 4.63674e-05 0)
(-0.001852 4.64531e-05 0)
(-0.00201162 4.63691e-05 0)
(-0.00217089 4.61435e-05 0)
(-0.00232938 4.58102e-05 0)
(-0.00248674 4.53927e-05 0)
(-0.00264264 4.49031e-05 0)
(-0.00279683 4.43495e-05 0)
(-0.00294909 4.37369e-05 0)
(-0.00309924 4.30774e-05 0)
(-0.00324713 4.23861e-05 0)
(-0.00339265 4.16719e-05 0)
(-0.0035357 4.09425e-05 0)
(-0.00367623 4.02023e-05 0)
(-0.00381416 3.94503e-05 0)
(-0.00394946 3.86888e-05 0)
(-0.0040821 3.79224e-05 0)
(-0.00421204 3.71506e-05 0)
(-0.00433928 3.63724e-05 0)
(-0.00446381 3.55925e-05 0)
(-0.00458563 3.48166e-05 0)
(-0.00470474 3.40484e-05 0)
(-0.00482114 3.32888e-05 0)
(-0.00493485 3.25355e-05 0)
(-0.00504589 3.1783e-05 0)
(-0.00515427 3.10294e-05 0)
(-0.00526001 3.0279e-05 0)
(-0.00536313 2.95366e-05 0)
(-0.00546366 2.8804e-05 0)
(-0.00556161 2.80815e-05 0)
(-0.00565702 2.73689e-05 0)
(-0.00574992 2.6665e-05 0)
(-0.00584033 2.59673e-05 0)
(-0.00592828 2.52754e-05 0)
(-0.00601382 2.45929e-05 0)
(-0.00609696 2.39224e-05 0)
(-0.00617774 2.32628e-05 0)
(-0.00625619 2.2611e-05 0)
(-0.00633235 2.19664e-05 0)
(-0.00640624 2.13307e-05 0)
(-0.0064779 2.07055e-05 0)
(-0.00654736 2.0089e-05 0)
(-0.00661464 1.94786e-05 0)
(-0.00667977 1.88743e-05 0)
(-0.00674279 1.82778e-05 0)
(-0.00680371 1.76899e-05 0)
(-0.00686257 1.71097e-05 0)
(-0.00691938 1.65355e-05 0)
(-0.00697417 1.59668e-05 0)
(-0.00702697 1.54043e-05 0)
(-0.0070778 1.48484e-05 0)
(-0.00712666 1.42985e-05 0)
(-0.00717359 1.37533e-05 0)
(-0.00721859 1.32115e-05 0)
(-0.00726168 1.26723e-05 0)
(-0.00730286 1.21351e-05 0)
(-0.00734213 1.15991e-05 0)
(-0.0073795 1.1063e-05 0)
(-0.00741496 1.05245e-05 0)
(-0.00744851 9.98193e-06 0)
(-0.00748014 9.43442e-06 0)
(-0.00750982 8.88231e-06 0)
(-0.00753755 8.32558e-06 0)
(-0.00756331 7.76318e-06 0)
(-0.00758706 7.19333e-06 0)
(-0.00760878 6.6141e-06 0)
(-0.00762844 6.02372e-06 0)
(-0.00764599 5.42068e-06 0)
(-0.00766138 4.80363e-06 0)
(-0.00767458 4.17091e-06 0)
(-0.00768551 3.52006e-06 0)
(-0.00769411 2.84806e-06 0)
(-0.00770031 2.15238e-06 0)
(-0.00770404 1.43154e-06 0)
(-0.0077052 6.84637e-07 0)
(-0.00770371 -8.95569e-08 0)
(-0.00769947 -8.92652e-07 0)
(-0.00769239 -1.72671e-06 0)
(-0.00768235 -2.59408e-06 0)
(-0.00766924 -3.49742e-06 0)
(-0.00765293 -4.43952e-06 0)
(-0.00763329 -5.42305e-06 0)
(-0.00761018 -6.45007e-06 0)
(-0.00758347 -7.52201e-06 0)
(-0.007553 -8.64026e-06 0)
(-0.0075186 -9.80702e-06 0)
(-0.00748012 -1.10255e-05 0)
(-0.00743739 -1.22988e-05 0)
(-0.00739023 -1.36291e-05 0)
(-0.00733845 -1.50177e-05 0)
(-0.00728187 -1.64647e-05 0)
(-0.00722031 -1.79705e-05 0)
(-0.00715358 -1.95348e-05 0)
(-0.00708148 -2.1157e-05 0)
(-0.00700384 -2.28367e-05 0)
(-0.00692047 -2.45735e-05 0)
(-0.00683119 -2.63668e-05 0)
(-0.00673582 -2.8215e-05 0)
(-0.0066342 -3.01152e-05 0)
(-0.00652616 -3.20644e-05 0)
(-0.00641156 -3.40589e-05 0)
(-0.00629027 -3.60948e-05 0)
(-0.00616218 -3.81664e-05 0)
(-0.00602717 -4.02671e-05 0)
(-0.0058852 -4.2389e-05 0)
(-0.0057362 -4.45239e-05 0)
(-0.00558016 -4.66631e-05 0)
(-0.0054171 -4.87964e-05 0)
(-0.00524708 -5.09126e-05 0)
(-0.00507018 -5.29985e-05 0)
(-0.00488656 -5.50387e-05 0)
(-0.0046964 -5.70153e-05 0)
(-0.00449997 -5.89097e-05 0)
(-0.00429759 -6.07029e-05 0)
(-0.00408962 -6.23753e-05 0)
(-0.00387652 -6.39053e-05 0)
(-0.00365882 -6.52685e-05 0)
(-0.00343712 -6.64387e-05 0)
(-0.00321212 -6.73884e-05 0)
(-0.00298459 -6.80897e-05 0)
(-0.00275542 -6.85131e-05 0)
(-0.00252556 -6.86277e-05 0)
(-0.00229609 -6.84011e-05 0)
(-0.00206819 -6.78007e-05 0)
(-0.00184313 -6.67927e-05 0)
(-0.0016223 -6.53406e-05 0)
(-0.0014072 -6.34043e-05 0)
(-0.00119945 -6.09425e-05 0)
(-0.00100078 -5.79134e-05 0)
(-0.000813028 -5.42732e-05 0)
(-0.000638147 -4.9975e-05 0)
(-0.000478194 -4.49691e-05 0)
(-0.000335315 -3.92059e-05 0)
(-0.000211715 -3.26398e-05 0)
(-0.000109597 -2.52406e-05 0)
(-3.10366e-05 -1.70269e-05 0)
(2.22332e-05 -8.14396e-06 0)
(4.92573e-05 9.87427e-07 0)
(5.08881e-05 9.29278e-06 0)
(3.30339e-05 1.42233e-05 0)
(1.02347e-05 1.02351e-05 0)
(7.1054e-06 -2.51443e-05 0)
(3.01509e-05 -4.07341e-05 0)
(4.44461e-05 -2.0045e-05 0)
(2.56837e-05 1.04769e-05 0)
(-3.62565e-05 4.56557e-05 0)
(-0.000143988 8.1563e-05 0)
(-0.00029763 0.000116118 0)
(-0.000495315 0.000148229 0)
(-0.000733981 0.000177365 0)
(-0.00100992 0.000203318 0)
(-0.00131915 0.000226066 0)
(-0.00165762 0.000245699 0)
(-0.00202137 0.000262384 0)
(-0.00240663 0.00027633 0)
(-0.00280986 0.000287758 0)
(-0.00322778 0.000296894 0)
(-0.00365741 0.000303966 0)
(-0.00409606 0.000309208 0)
(-0.0045413 0.000312839 0)
(-0.00499099 0.00031506 0)
(-0.00544322 0.00031604 0)
(-0.00589633 0.000315935 0)
(-0.00634886 0.000314891 0)
(-0.00679957 0.000313046 0)
(-0.00724738 0.000310528 0)
(-0.00769137 0.000307441 0)
(-0.00813075 0.000303875 0)
(-0.00856486 0.00029991 0)
(-0.00899317 0.00029561 0)
(-0.0094152 0.000291043 0)
(-0.0098306 0.000286268 0)
(-0.0102391 0.000281327 0)
(-0.0106403 0.000276253 0)
(-0.0110343 0.000271076 0)
(-0.0114206 0.000265822 0)
(-0.0117994 0.00026051 0)
(-0.0121705 0.000255156 0)
(-0.0125337 0.000249777 0)
(-0.0128892 0.000244387 0)
(-0.0132368 0.000238995 0)
(-0.0135767 0.000233614 0)
(-0.0139087 0.000228254 0)
(-0.014233 0.000222924 0)
(-0.0145495 0.000217625 0)
(-0.0148583 0.000212357 0)
(-0.0151595 0.000207126 0)
(-0.0154531 0.000201938 0)
(-0.0157392 0.000196799 0)
(-0.0160178 0.000191713 0)
(-0.0162891 0.000186683 0)
(-0.0165531 0.000181712 0)
(-0.0168099 0.000176798 0)
(-0.0170596 0.000171944 0)
(-0.0173023 0.000167151 0)
(-0.017538 0.000162422 0)
(-0.0177668 0.000157757 0)
(-0.0179889 0.000153155 0)
(-0.0182044 0.000148615 0)
(-0.0184132 0.000144137 0)
(-0.0186156 0.000139721 0)
(-0.0188116 0.000135363 0)
(-0.0190013 0.000131062 0)
(-0.0191848 0.000126817 0)
(-0.0193621 0.000122626 0)
(-0.0195333 0.000118489 0)
(-0.0196986 0.000114401 0)
(-0.0198579 0.00011036 0)
(-0.0200114 0.000106363 0)
(-0.0201592 0.000102411 0)
(-0.0203012 9.85003e-05 0)
(-0.0204375 9.46238e-05 0)
(-0.0205681 9.07751e-05 0)
(-0.0206932 8.69489e-05 0)
(-0.0208127 8.31407e-05 0)
(-0.0209267 7.93456e-05 0)
(-0.0210352 7.55565e-05 0)
(-0.0211381 7.17653e-05 0)
(-0.0212355 6.79636e-05 0)
(-0.0213273 6.41434e-05 0)
(-0.0214135 6.02984e-05 0)
(-0.0214942 5.64229e-05 0)
(-0.0215691 5.25099e-05 0)
(-0.0216384 4.85511e-05 0)
(-0.0217018 4.4537e-05 0)
(-0.0217594 4.04585e-05 0)
(-0.0218109 3.63059e-05 0)
(-0.0218564 3.20687e-05 0)
(-0.0218956 2.77354e-05 0)
(-0.0219284 2.32933e-05 0)
(-0.0219547 1.87289e-05 0)
(-0.0219743 1.40287e-05 0)
(-0.021987 9.17998e-06 0)
(-0.0219925 4.17141e-06 0)
(-0.0219907 -1.00797e-06 0)
(-0.0219812 -6.36974e-06 0)
(-0.0219639 -1.19264e-05 0)
(-0.0219384 -1.76913e-05 0)
(-0.0219044 -2.36786e-05 0)
(-0.0218617 -2.99025e-05 0)
(-0.0218098 -3.63769e-05 0)
(-0.0217484 -4.31157e-05 0)
(-0.0216772 -5.01325e-05 0)
(-0.0215956 -5.74406e-05 0)
(-0.0215034 -6.50528e-05 0)
(-0.0214001 -7.2982e-05 0)
(-0.0212852 -8.12405e-05 0)
(-0.0211583 -8.98403e-05 0)
(-0.0210189 -9.87918e-05 0)
(-0.0208665 -0.000108103 0)
(-0.0207006 -0.000117778 0)
(-0.0205208 -0.00012782 0)
(-0.0203264 -0.000138231 0)
(-0.0201171 -0.000149008 0)
(-0.0198922 -0.000160147 0)
(-0.0196514 -0.000171643 0)
(-0.019394 -0.000183487 0)
(-0.0191198 -0.000195667 0)
(-0.0188282 -0.000208165 0)
(-0.0185187 -0.000220962 0)
(-0.0181911 -0.00023403 0)
(-0.017845 -0.000247339 0)
(-0.0174801 -0.000260853 0)
(-0.0170961 -0.000274527 0)
(-0.0166929 -0.000288314 0)
(-0.0162704 -0.000302158 0)
(-0.0158285 -0.000315996 0)
(-0.0153674 -0.000329758 0)
(-0.0148873 -0.000343365 0)
(-0.0143883 -0.000356727 0)
(-0.0138711 -0.000369747 0)
(-0.0133362 -0.000382315 0)
(-0.0127843 -0.000394317 0)
(-0.0122163 -0.000405627 0)
(-0.0116333 -0.000416113 0)
(-0.0110365 -0.000425632 0)
(-0.0104275 -0.000434031 0)
(-0.00980803 -0.000441146 0)
(-0.0091799 -0.000446807 0)
(-0.00854534 -0.000450833 0)
(-0.00790676 -0.000453041 0)
(-0.00726683 -0.000453239 0)
(-0.00662852 -0.000451225 0)
(-0.00599502 -0.000446795 0)
(-0.00536985 -0.000439739 0)
(-0.00475676 -0.000429843 0)
(-0.00415983 -0.000416889 0)
(-0.00358338 -0.00040066 0)
(-0.00303199 -0.00038094 0)
(-0.00251052 -0.000357523 0)
(-0.00202399 -0.000330215 0)
(-0.00157761 -0.000298853 0)
(-0.00117666 -0.00026333 0)
(-0.000826326 -0.000223646 0)
(-0.000531493 -0.000179991 0)
(-0.000296347 -0.000132922 0)
(-0.000123751 -8.36919e-05 0)
(-1.42484e-05 -3.48421e-05 0)
(3.56658e-05 8.68353e-06 0)
(3.74414e-05 3.74229e-05 0)
(1.42104e-05 3.30005e-05 0)
(8.26687e-06 -4.37711e-05 0)
(1.78226e-05 -4.98866e-05 0)
(-2.58151e-06 1.82413e-07 0)
(-7.24735e-05 7.73663e-05 0)
(-0.000204136 0.000166852 0)
(-0.000402101 0.000259719 0)
(-0.000666974 0.000350543 0)
(-0.000996642 0.000436158 0)
(-0.00138722 0.000514808 0)
(-0.00183378 0.00058563 0)
(-0.0023308 0.000648319 0)
(-0.00287255 0.000702929 0)
(-0.00345329 0.000749751 0)
(-0.00406748 0.000789224 0)
(-0.00470986 0.000821866 0)
(-0.00537547 0.000848232 0)
(-0.00605978 0.000868893 0)
(-0.00675861 0.000884423 0)
(-0.00746822 0.000895377 0)
(-0.00818525 0.000902289 0)
(-0.00890669 0.000905647 0)
(-0.00962989 0.000905894 0)
(-0.0103525 0.00090344 0)
(-0.0110726 0.000898654 0)
(-0.0117883 0.000891873 0)
(-0.0124982 0.000883398 0)
(-0.013201 0.000873489 0)
(-0.0138956 0.000862378 0)
(-0.0145811 0.000850274 0)
(-0.0152567 0.000837349 0)
(-0.0159218 0.000823756 0)
(-0.0165759 0.00080963 0)
(-0.0172185 0.000795079 0)
(-0.0178493 0.000780189 0)
(-0.0184681 0.000765039 0)
(-0.0190745 0.000749698 0)
(-0.0196686 0.000734222 0)
(-0.0202502 0.000718657 0)
(-0.0208192 0.000703046 0)
(-0.0213755 0.000687422 0)
(-0.0219193 0.000671812 0)
(-0.0224504 0.000656245 0)
(-0.0229689 0.000640746 0)
(-0.0234749 0.000625332 0)
(-0.0239685 0.000610016 0)
(-0.0244497 0.000594813 0)
(-0.0249186 0.000579736 0)
(-0.0253754 0.000564795 0)
(-0.0258201 0.000549998 0)
(-0.0262529 0.000535359 0)
(-0.0266739 0.000520886 0)
(-0.0270832 0.000506582 0)
(-0.027481 0.000492453 0)
(-0.0278674 0.000478502 0)
(-0.0282426 0.000464732 0)
(-0.0286067 0.000451145 0)
(-0.0289598 0.000437742 0)
(-0.0293021 0.000424521 0)
(-0.0296338 0.000411481 0)
(-0.029955 0.00039862 0)
(-0.0302658 0.000385933 0)
(-0.0305665 0.000373416 0)
(-0.030857 0.000361064 0)
(-0.0311376 0.000348873 0)
(-0.0314084 0.000336835 0)
(-0.0316695 0.000324942 0)
(-0.031921 0.000313188 0)
(-0.032163 0.000301565 0)
(-0.0323957 0.000290064 0)
(-0.0326191 0.000278676 0)
(-0.0328333 0.000267384 0)
(-0.0330384 0.000256173 0)
(-0.0332345 0.000245028 0)
(-0.0334215 0.000233935 0)
(-0.0335995 0.000222877 0)
(-0.0337686 0.000211835 0)
(-0.0339288 0.000200788 0)
(-0.0340799 0.000189717 0)
(-0.0342221 0.000178599 0)
(-0.0343553 0.000167415 0)
(-0.0344794 0.000156143 0)
(-0.0345943 0.000144762 0)
(-0.0346999 0.000133246 0)
(-0.0347962 0.00012157 0)
(-0.0348829 0.000109708 0)
(-0.03496 9.76332e-05 0)
(-0.0350272 8.53145e-05 0)
(-0.0350844 7.27201e-05 0)
(-0.0351312 5.98163e-05 0)
(-0.0351675 4.65681e-05 0)
(-0.0351929 3.29409e-05 0)
(-0.0352073 1.89002e-05 0)
(-0.0352101 4.41226e-06 0)
(-0.0352011 -1.05568e-05 0)
(-0.0351799 -2.60416e-05 0)
(-0.035146 -4.20783e-05 0)
(-0.035099 -5.87043e-05 0)
(-0.0350385 -7.59573e-05 0)
(-0.0349639 -9.38751e-05 0)
(-0.0348746 -0.000112496 0)
(-0.0347702 -0.000131856 0)
(-0.0346501 -0.000151994 0)
(-0.0345136 -0.000172947 0)
(-0.03436 -0.000194748 0)
(-0.0341888 -0.000217433 0)
(-0.0339992 -0.000241031 0)
(-0.0337905 -0.000265572 0)
(-0.033562 -0.00029108 0)
(-0.0333129 -0.000317575 0)
(-0.0330425 -0.000345072 0)
(-0.03275 -0.00037358 0)
(-0.0324346 -0.000403101 0)
(-0.0320956 -0.00043363 0)
(-0.0317321 -0.000465157 0)
(-0.0313435 -0.000497663 0)
(-0.0309291 -0.00053112 0)
(-0.030488 -0.000565491 0)
(-0.0300196 -0.000600727 0)
(-0.0295234 -0.000636768 0)
(-0.0289987 -0.000673538 0)
(-0.028445 -0.000710948 0)
(-0.027862 -0.000748893 0)
(-0.0272491 -0.00078725 0)
(-0.0266064 -0.000825879 0)
(-0.0259335 -0.000864622 0)
(-0.0252305 -0.000903298 0)
(-0.0244977 -0.000941707 0)
(-0.0237352 -0.000979624 0)
(-0.0229438 -0.0010168 0)
(-0.022124 -0.00105296 0)
(-0.0212769 -0.0010878 0)
(-0.0204035 -0.001121 0)
(-0.0195054 -0.00115221 0)
(-0.0185844 -0.00118106 0)
(-0.0176423 -0.00120715 0)
(-0.0166816 -0.00123006 0)
(-0.0157049 -0.00124933 0)
(-0.0147153 -0.00126449 0)
(-0.0137162 -0.00127506 0)
(-0.0127113 -0.00128052 0)
(-0.0117049 -0.00128034 0)
(-0.0107014 -0.00127399 0)
(-0.00970582 -0.0012609 0)
(-0.00872362 -0.00124053 0)
(-0.00776056 -0.0012123 0)
(-0.00682283 -0.00117566 0)
(-0.00591699 -0.00113006 0)
(-0.00504995 -0.001075 0)
(-0.00422892 -0.00101001 0)
(-0.00346134 -0.000934702 0)
(-0.00275475 -0.000848831 0)
(-0.00211664 -0.000752372 0)
(-0.00155421 -0.00064566 0)
(-0.00107397 -0.000529632 0)
(-0.000681223 -0.000406221 0)
(-0.000379229 -0.000279041 0)
(-0.000168028 -0.000154502 0)
(-4.27175e-05 -4.35039e-05 0)
(9.04894e-06 3.57311e-05 0)
(9.33275e-06 5.08696e-05 0)
(3.53233e-06 -4.80348e-05 0)
(-1.04164e-05 -2.88656e-05 0)
(-7.76048e-05 7.08103e-05 0)
(-0.000212955 0.000212969 0)
(-0.000426954 0.000375562 0)
(-0.000724295 0.000544518 0)
(-0.00110547 0.000710719 0)
(-0.00156799 0.000868493 0)
(-0.00210737 0.00101446 0)
(-0.00271778 0.00114678 0)
(-0.00339266 0.00126465 0)
(-0.00412504 0.00136796 0)
(-0.00490788 0.00145704 0)
(-0.00573427 0.00153257 0)
(-0.00659758 0.00159538 0)
(-0.00749154 0.00164643 0)
(-0.00841032 0.00168673 0)
(-0.00934854 0.00171729 0)
(-0.0103013 0.00173909 0)
(-0.0112642 0.00175311 0)
(-0.0122332 0.00176025 0)
(-0.013205 0.00176134 0)
(-0.0141762 0.00175717 0)
(-0.0151443 0.00174844 0)
(-0.0161069 0.00173577 0)
(-0.0170619 0.00171974 0)
(-0.0180075 0.00170087 0)
(-0.0189423 0.00167959 0)
(-0.019865 0.0016563 0)
(-0.0207746 0.00163135 0)
(-0.0216701 0.00160503 0)
(-0.0225507 0.00157761 0)
(-0.023416 0.0015493 0)
(-0.0242654 0.00152028 0)
(-0.0250985 0.00149071 0)
(-0.025915 0.00146073 0)
(-0.0267147 0.00143045 0)
(-0.0274975 0.00139998 0)
(-0.0282632 0.00136939 0)
(-0.0290117 0.00133876 0)
(-0.0297431 0.00130815 0)
(-0.0304574 0.00127761 0)
(-0.0311546 0.00124719 0)
(-0.0318347 0.00121692 0)
(-0.0324979 0.00118684 0)
(-0.0331443 0.00115698 0)
(-0.033774 0.00112737 0)
(-0.0343872 0.00109802 0)
(-0.0349839 0.00106896 0)
(-0.0355644 0.0010402 0)
(-0.0361289 0.00101176 0)
(-0.0366775 0.000983659 0)
(-0.0372104 0.000955897 0)
(-0.0377278 0.000928485 0)
(-0.0382299 0.000901429 0)
(-0.038717 0.000874731 0)
(-0.0391891 0.000848394 0)
(-0.0396466 0.000822418 0)
(-0.0400896 0.000796798 0)
(-0.0405183 0.000771529 0)
(-0.0409329 0.000746606 0)
(-0.0413337 0.00072202 0)
(-0.0417207 0.000697762 0)
(-0.0420942 0.000673821 0)
(-0.0424544 0.000650183 0)
(-0.0428015 0.000626833 0)
(-0.0431355 0.000603756 0)
(-0.0434566 0.000580934 0)
(-0.0437651 0.000558349 0)
(-0.0440609 0.000535977 0)
(-0.0443442 0.000513792 0)
(-0.0446152 0.000491767 0)
(-0.0448738 0.000469872 0)
(-0.0451201 0.000448077 0)
(-0.0453543 0.00042635 0)
(-0.0455763 0.000404655 0)
(-0.0457862 0.000382954 0)
(-0.0459838 0.000361208 0)
(-0.0461693 0.000339379 0)
(-0.0463425 0.000317424 0)
(-0.0465034 0.000295301 0)
(-0.0466518 0.000272965 0)
(-0.0467877 0.000250367 0)
(-0.0469108 0.000227459 0)
(-0.0470211 0.000204189 0)
(-0.0471182 0.000180503 0)
(-0.0472019 0.000156345 0)
(-0.047272 0.000131654 0)
(-0.0473282 0.000106367 0)
(-0.0473701 8.04203e-05 0)
(-0.0473973 5.37489e-05 0)
(-0.0474095 2.62874e-05 0)
(-0.0474061 -2.02993e-06 0)
(-0.0473868 -3.12698e-05 0)
(-0.047351 -6.14999e-05 0)
(-0.0472982 -9.27899e-05 0)
(-0.0472277 -0.00012521 0)
(-0.047139 -0.000158832 0)
(-0.0470313 -0.000193728 0)
(-0.046904 -0.000229967 0)
(-0.0467564 -0.00026762 0)
(-0.0465876 -0.000306756 0)
(-0.0463969 -0.000347444 0)
(-0.0461834 -0.000389747 0)
(-0.0459462 -0.000433728 0)
(-0.0456845 -0.000479443 0)
(-0.0453974 -0.000526943 0)
(-0.0450837 -0.000576271 0)
(-0.0447427 -0.000627463 0)
(-0.0443733 -0.000680547 0)
(-0.0439745 -0.000735537 0)
(-0.0435453 -0.000792438 0)
(-0.0430847 -0.000851243 0)
(-0.0425917 -0.000911928 0)
(-0.0420654 -0.000974455 0)
(-0.0415048 -0.00103877 0)
(-0.040909 -0.00110479 0)
(-0.0402771 -0.00117243 0)
(-0.0396084 -0.00124157 0)
(-0.0389021 -0.00131205 0)
(-0.0381577 -0.00138371 0)
(-0.0373744 -0.00145634 0)
(-0.036552 -0.0015297 0)
(-0.0356902 -0.00160353 0)
(-0.0347888 -0.00167751 0)
(-0.033848 -0.0017513 0)
(-0.0328679 -0.0018245 0)
(-0.0318491 -0.0018967 0)
(-0.0307923 -0.0019674 0)
(-0.0296985 -0.00203609 0)
(-0.028569 -0.0021022 0)
(-0.0274053 -0.0021651 0)
(-0.0262095 -0.00222414 0)
(-0.0249838 -0.0022786 0)
(-0.0237309 -0.00232772 0)
(-0.0224539 -0.00237071 0)
(-0.0211564 -0.00240671 0)
(-0.0198424 -0.00243483 0)
(-0.0185164 -0.00245415 0)
(-0.0171832 -0.00246371 0)
(-0.0158484 -0.00246252 0)
(-0.0145179 -0.00244958 0)
(-0.0131982 -0.00242386 0)
(-0.0118963 -0.00238435 0)
(-0.0106196 -0.00233002 0)
(-0.00937611 -0.00225989 0)
(-0.0081742 -0.00217301 0)
(-0.00702264 -0.00206854 0)
(-0.00593047 -0.00194574 0)
(-0.00490697 -0.00180408 0)
(-0.00396141 -0.00164334 0)
(-0.00310286 -0.00146376 0)
(-0.0023399 -0.00126631 0)
(-0.00168014 -0.00105307 0)
(-0.00112963 -0.000827843 0)
(-0.000692065 -0.000597153 0)
(-0.000367617 -0.000371695 0)
(-0.000151462 -0.000168358 0)
(-3.35639e-05 -1.33604e-05 0)
(1.19241e-06 4.95509e-05 0)
(-2.6007e-06 -3.75452e-05 0)
(-4.48833e-05 3.31865e-05 0)
(-0.000166967 0.000202833 0)
(-0.000376526 0.000427311 0)
(-0.000680651 0.000678993 0)
(-0.00108307 0.000939279 0)
(-0.00158357 0.00119559 0)
(-0.00217902 0.00143974 0)
(-0.00286427 0.00166659 0)
(-0.00363276 0.00187319 0)
(-0.00447709 0.00205807 0)
(-0.00538937 0.00222085 0)
(-0.00636156 0.00236186 0)
(-0.00738569 0.00248193 0)
(-0.00845404 0.00258223 0)
(-0.0095593 0.00266413 0)
(-0.0106946 0.00272911 0)
(-0.0118535 0.00277868 0)
(-0.0130303 0.00281436 0)
(-0.0142195 0.00283759 0)
(-0.0154165 0.00284977 0)
(-0.0166168 0.00285221 0)
(-0.0178168 0.00284612 0)
(-0.0190131 0.00283261 0)
(-0.0202028 0.0028127 0)
(-0.0213833 0.00278727 0)
(-0.0225525 0.00275715 0)
(-0.0237084 0.00272306 0)
(-0.0248494 0.00268563 0)
(-0.0259743 0.00264542 0)
(-0.0270818 0.00260291 0)
(-0.028171 0.00255853 0)
(-0.0292411 0.00251262 0)
(-0.0302916 0.00246551 0)
(-0.0313218 0.00241746 0)
(-0.0323314 0.00236869 0)
(-0.0333201 0.00231939 0)
(-0.0342877 0.00226973 0)
(-0.035234 0.00221986 0)
(-0.036159 0.0021699 0)
(-0.0370625 0.00211995 0)
(-0.0379447 0.00207009 0)
(-0.0388055 0.00202042 0)
(-0.039645 0.00197099 0)
(-0.0404634 0.00192186 0)
(-0.0412608 0.00187308 0)
(-0.0420374 0.0018247 0)
(-0.0427932 0.00177676 0)
(-0.0435286 0.00172928 0)
(-0.0442437 0.00168231 0)
(-0.0449387 0.00163585 0)
(-0.0456139 0.00158994 0)
(-0.0462696 0.00154459 0)
(-0.0469059 0.00149981 0)
(-0.0475231 0.00145561 0)
(-0.0481215 0.001412 0)
(-0.0487013 0.00136898 0)
(-0.0492627 0.00132655 0)
(-0.0498062 0.00128471 0)
(-0.0503318 0.00124344 0)
(-0.0508398 0.00120274 0)
(-0.0513305 0.0011626 0)
(-0.0518041 0.001123 0)
(-0.0522609 0.00108391 0)
(-0.0527011 0.00104532 0)
(-0.0531248 0.0010072 0)
(-0.0535323 0.000969535 0)
(-0.0539238 0.000932283 0)
(-0.0542994 0.000895413 0)
(-0.0546593 0.000858887 0)
(-0.0550037 0.000822667 0)
(-0.0553326 0.000786708 0)
(-0.0556461 0.000750962 0)
(-0.0559444 0.000715381 0)
(-0.0562275 0.000679911 0)
(-0.0564954 0.000644495 0)
(-0.0567482 0.000609073 0)
(-0.0569858 0.000573584 0)
(-0.0572082 0.000537964 0)
(-0.0574153 0.000502144 0)
(-0.0576071 0.000466055 0)
(-0.0577835 0.000429624 0)
(-0.0579441 0.000392772 0)
(-0.058089 0.000355421 0)
(-0.0582178 0.000317486 0)
(-0.0583303 0.000278882 0)
(-0.0584261 0.000239516 0)
(-0.0585051 0.000199294 0)
(-0.0585667 0.000158118 0)
(-0.0586106 0.000115888 0)
(-0.0586364 7.24989e-05 0)
(-0.0586435 2.78483e-05 0)
(-0.0586313 -1.81699e-05 0)
(-0.0585994 -6.56629e-05 0)
(-0.0585471 -0.00011474 0)
(-0.0584738 -0.000165511 0)
(-0.0583786 -0.000218088 0)
(-0.0582609 -0.000272583 0)
(-0.0581199 -0.000329109 0)
(-0.0579547 -0.000387778 0)
(-0.0577644 -0.000448701 0)
(-0.0575481 -0.000511985 0)
(-0.0573048 -0.000577736 0)
(-0.0570335 -0.000646052 0)
(-0.0567332 -0.000717029 0)
(-0.0564027 -0.000790755 0)
(-0.056041 -0.000867306 0)
(-0.0556469 -0.000946751 0)
(-0.0552192 -0.00102914 0)
(-0.0547569 -0.00111452 0)
(-0.0542585 -0.00120291 0)
(-0.0537231 -0.00129431 0)
(-0.0531494 -0.00138872 0)
(-0.0525361 -0.00148608 0)
(-0.0518823 -0.00158635 0)
(-0.0511866 -0.00168942 0)
(-0.0504481 -0.00179517 0)
(-0.0496658 -0.00190344 0)
(-0.0488386 -0.00201405 0)
(-0.0479658 -0.00212674 0)
(-0.0470466 -0.00224125 0)
(-0.0460805 -0.00235724 0)
(-0.0450668 -0.00247432 0)
(-0.0440054 -0.00259207 0)
(-0.0428962 -0.00270998 0)
(-0.0417392 -0.0028275 0)
(-0.0405348 -0.00294401 0)
(-0.0392837 -0.00305881 0)
(-0.0379867 -0.00317114 0)
(-0.0366451 -0.00328018 0)
(-0.0352605 -0.003385 0)
(-0.0338349 -0.00348463 0)
(-0.0323706 -0.00357802 0)
(-0.0308705 -0.00366403 0)
(-0.0293379 -0.00374147 0)
(-0.0277766 -0.00380906 0)
(-0.0261908 -0.00386546 0)
(-0.0245854 -0.00390928 0)
(-0.0229658 -0.00393905 0)
(-0.021338 -0.00395329 0)
(-0.0197085 -0.00395045 0)
(-0.0180845 -0.00392898 0)
(-0.0164737 -0.00388729 0)
(-0.0148845 -0.00382383 0)
(-0.0133256 -0.00373707 0)
(-0.0118065 -0.00362554 0)
(-0.0103371 -0.00348787 0)
(-0.00892745 -0.00332287 0)
(-0.00758821 -0.00312957 0)
(-0.00632998 -0.00290739 0)
(-0.00516336 -0.00265624 0)
(-0.00409859 -0.0023768 0)
(-0.00314529 -0.00207088 0)
(-0.00231192 -0.00174192 0)
(-0.00160529 -0.00139581 0)
(-0.00102986 -0.00104197 0)
(-0.000586667 -0.000695096 0)
(-0.000272209 -0.000377155 0)
(-8.08492e-05 -0.000120542 0)
(-7.63438e-06 2.3486e-05 0)
(-9.02229e-06 -7.70743e-06 0)
(-8.1273e-05 0.000141543 0)
(-0.000261792 0.000402249 0)
(-0.000549763 0.000726434 0)
(-0.000947887 0.00108234 0)
(-0.00145812 0.00144767 0)
(-0.00207899 0.00180683 0)
(-0.00280635 0.00214932 0)
(-0.00363427 0.00246833 0)
(-0.00455546 0.00275974 0)
(-0.00556176 0.00302138 0)
(-0.0066445 0.00325253 0)
(-0.00779486 0.00345346 0)
(-0.00900403 0.00362517 0)
(-0.0102634 0.00376912 0)
(-0.0115649 0.00388708 0)
(-0.0129007 0.00398103 0)
(-0.0142636 0.00405303 0)
(-0.015647 0.00410513 0)
(-0.0170449 0.00413935 0)
(-0.0184517 0.00415762 0)
(-0.0198625 0.00416179 0)
(-0.0212729 0.00415355 0)
(-0.0226791 0.00413447 0)
(-0.0240775 0.00410601 0)
(-0.0254653 0.00406945 0)
(-0.0268398 0.00402596 0)
(-0.0281989 0.00397658 0)
(-0.0295405 0.00392224 0)
(-0.0308631 0.00386373 0)
(-0.0321652 0.00380178 0)
(-0.0334459 0.00373699 0)
(-0.034704 0.0036699 0)
(-0.0359388 0.00360097 0)
(-0.0371498 0.00353058 0)
(-0.0383364 0.00345909 0)
(-0.0394983 0.00338679 0)
(-0.0406351 0.00331391 0)
(-0.0417467 0.00324069 0)
(-0.0428329 0.00316729 0)
(-0.0438938 0.00309388 0)
(-0.0449293 0.00302061 0)
(-0.0459394 0.00294758 0)
(-0.0469244 0.0028749 0)
(-0.0478842 0.00280266 0)
(-0.048819 0.00273093 0)
(-0.0497291 0.00265978 0)
(-0.0506147 0.00258927 0)
(-0.0514759 0.00251945 0)
(-0.0523131 0.00245037 0)
(-0.0531265 0.00238206 0)
(-0.0539164 0.00231455 0)
(-0.054683 0.00224786 0)
(-0.0554267 0.00218202 0)
(-0.0561478 0.00211704 0)
(-0.0568465 0.00205294 0)
(-0.0575232 0.0019897 0)
(-0.0581782 0.00192733 0)
(-0.0588118 0.00186583 0)
(-0.0594243 0.00180519 0)
(-0.060016 0.00174538 0)
(-0.0605871 0.0016864 0)
(-0.0611381 0.0016282 0)
(-0.061669 0.00157078 0)
(-0.0621803 0.00151409 0)
(-0.0626722 0.0014581 0)
(-0.0631448 0.00140277 0)
(-0.0635985 0.00134805 0)
(-0.0640334 0.00129389 0)
(-0.0644497 0.00124024 0)
(-0.0648476 0.00118704 0)
(-0.0652272 0.00113422 0)
(-0.0655887 0.00108172 0)
(-0.0659321 0.00102947 0)
(-0.0662575 0.000977374 0)
(-0.066565 0.000925365 0)
(-0.0668546 0.000873355 0)
(-0.0671263 0.000821252 0)
(-0.0673801 0.000768962 0)
(-0.0676157 0.000716388 0)
(-0.0678333 0.000663425 0)
(-0.0680326 0.000609968 0)
(-0.0682134 0.000555905 0)
(-0.0683755 0.000501118 0)
(-0.0685187 0.000445487 0)
(-0.0686426 0.000388887 0)
(-0.068747 0.000331185 0)
(-0.0688314 0.000272245 0)
(-0.0688954 0.000211929 0)
(-0.0689385 0.000150091 0)
(-0.0689603 8.65852e-05 0)
(-0.0689601 2.12611e-05 0)
(-0.0689373 -4.60333e-05 0)
(-0.0688913 -0.000115452 0)
(-0.0688213 -0.000187154 0)
(-0.0687267 -0.000261295 0)
(-0.0686064 -0.000338037 0)
(-0.0684598 -0.00041754 0)
(-0.0682858 -0.000499964 0)
(-0.0680834 -0.000585469 0)
(-0.0678518 -0.00067421 0)
(-0.0675897 -0.000766342 0)
(-0.0672961 -0.000862012 0)
(-0.0669699 -0.000961361 0)
(-0.0666097 -0.00106452 0)
(-0.0662144 -0.00117161 0)
(-0.0657827 -0.00128275 0)
(-0.0653132 -0.00139802 0)
(-0.0648047 -0.00151749 0)
(-0.0642558 -0.00164123 0)
(-0.0636652 -0.00176927 0)
(-0.0630314 -0.00190161 0)
(-0.0623531 -0.00203821 0)
(-0.061629 -0.00217904 0)
(-0.0608578 -0.00232398 0)
(-0.0600381 -0.00247291 0)
(-0.0591688 -0.00262564 0)
(-0.0582487 -0.00278193 0)
(-0.0572768 -0.00294151 0)
(-0.0562521 -0.00310403 0)
(-0.0551737 -0.00326907 0)
(-0.0540411 -0.00343616 0)
(-0.0528536 -0.00360474 0)
(-0.0516111 -0.00377419 0)
(-0.0503133 -0.00394377 0)
(-0.0489605 -0.0041127 0)
(-0.0475531 -0.00428006 0)
(-0.0460919 -0.00444487 0)
(-0.0445779 -0.00460602 0)
(-0.0430126 -0.00476232 0)
(-0.041398 -0.00491246 0)
(-0.0397362 -0.00505504 0)
(-0.0380301 -0.00518854 0)
(-0.036283 -0.00531135 0)
(-0.0344987 -0.00542174 0)
(-0.0326815 -0.00551792 0)
(-0.0308364 -0.00559796 0)
(-0.028969 -0.00565989 0)
(-0.0270855 -0.00570164 0)
(-0.0251926 -0.0057211 0)
(-0.0232981 -0.00571611 0)
(-0.0214099 -0.00568448 0)
(-0.0195368 -0.00562403 0)
(-0.0176883 -0.0055326 0)
(-0.0158745 -0.00540811 0)
(-0.0141057 -0.00524859 0)
(-0.0123932 -0.00505224 0)
(-0.0107482 -0.00481754 0)
(-0.0091825 -0.00454336 0)
(-0.00770774 -0.00422908 0)
(-0.00633557 -0.00387487 0)
(-0.00507721 -0.00348196 0)
(-0.00394314 -0.0030531 0)
(-0.00294267 -0.00259316 0)
(-0.00208353 -0.00211001 0)
(-0.00137133 -0.00161576 0)
(-0.000808651 -0.00112841 0)
(-0.000394212 -0.000673835 0)
(-0.000127907 -0.000288583 0)
(-1.60768e-05 -2.78283e-05 0)
(-1.52141e-05 4.12605e-05 0)
(-0.000117241 0.000297316 0)
(-0.000356679 0.00067107 0)
(-0.000723935 0.0011126 0)
(-0.00121687 0.00158742 0)
(-0.00183513 0.00207051 0)
(-0.00257553 0.00254387 0)
(-0.00343263 0.00299502 0)
(-0.00439948 0.00341567 0)
(-0.00546799 0.00380062 0)
(-0.00662926 0.00414704 0)
(-0.00787391 0.00445384 0)
(-0.00919241 0.00472124 0)
(-0.0105753 0.00495035 0)
(-0.0120132 0.00514294 0)
(-0.0134974 0.00530122 0)
(-0.0150193 0.00542765 0)
(-0.0165711 0.00552484 0)
(-0.0181456 0.00559542 0)
(-0.0197359 0.00564202 0)
(-0.0213361 0.00566716 0)
(-0.0229406 0.00567323 0)
(-0.0245446 0.00566249 0)
(-0.0261437 0.00563703 0)
(-0.0277339 0.00559874 0)
(-0.029312 0.00554936 0)
(-0.030875 0.00549048 0)
(-0.0324204 0.00542348 0)
(-0.0339458 0.0053496 0)
(-0.0354496 0.00526996 0)
(-0.0369301 0.0051855 0)
(-0.038386 0.00509707 0)
(-0.0398162 0.00500541 0)
(-0.0412198 0.00491115 0)
(-0.042596 0.00481483 0)
(-0.0439443 0.00471693 0)
(-0.0452642 0.00461786 0)
(-0.0465555 0.00451796 0)
(-0.0478178 0.00441754 0)
(-0.049051 0.00431686 0)
(-0.0502552 0.00421614 0)
(-0.0514302 0.00411557 0)
(-0.0525761 0.00401533 0)
(-0.0536931 0.00391556 0)
(-0.0547812 0.00381638 0)
(-0.0558407 0.0037179 0)
(-0.0568718 0.00362022 0)
(-0.0578748 0.00352342 0)
(-0.0588498 0.00342758 0)
(-0.0597972 0.00333274 0)
(-0.0607174 0.00323897 0)
(-0.0616106 0.00314631 0)
(-0.0624771 0.00305479 0)
(-0.0633174 0.00296445 0)
(-0.0641317 0.00287529 0)
(-0.0649204 0.00278733 0)
(-0.065684 0.00270057 0)
(-0.0664226 0.00261502 0)
(-0.0671367 0.00253066 0)
(-0.0678267 0.00244749 0)
(-0.0684929 0.00236547 0)
(-0.0691356 0.00228459 0)
(-0.0697551 0.0022048 0)
(-0.0703518 0.00212607 0)
(-0.0709261 0.00204835 0)
(-0.071478 0.0019716 0)
(-0.0720081 0.00189576 0)
(-0.0725164 0.00182076 0)
(-0.0730033 0.00174653 0)
(-0.073469 0.001673 0)
(-0.0739136 0.00160009 0)
(-0.0743373 0.00152772 0)
(-0.0747404 0.00145577 0)
(-0.0751228 0.00138417 0)
(-0.0754846 0.0013128 0)
(-0.0758261 0.00124155 0)
(-0.076147 0.0011703 0)
(-0.0764476 0.00109893 0)
(-0.0767276 0.00102732 0)
(-0.0769871 0.000955332 0)
(-0.0772259 0.000882822 0)
(-0.0774438 0.000809645 0)
(-0.0776407 0.000735652 0)
(-0.0778163 0.000660683 0)
(-0.0779704 0.000584575 0)
(-0.0781025 0.000507158 0)
(-0.0782124 0.000428254 0)
(-0.0782995 0.000347683 0)
(-0.0783635 0.000265255 0)
(-0.0784037 0.000180778 0)
(-0.0784197 9.40542e-05 0)
(-0.0784107 4.88232e-06 0)
(-0.0783761 -8.69421e-05 0)
(-0.0783151 -0.000181627 0)
(-0.078227 -0.000279383 0)
(-0.0781109 -0.000380424 0)
(-0.0779658 -0.000484962 0)
(-0.0777908 -0.000593215 0)
(-0.0775848 -0.000705394 0)
(-0.0773469 -0.000821712 0)
(-0.0770758 -0.000942377 0)
(-0.0767703 -0.00106759 0)
(-0.0764293 -0.00119755 0)
(-0.0760514 -0.00133245 0)
(-0.0756352 -0.00147245 0)
(-0.0751794 -0.00161772 0)
(-0.0746827 -0.0017684 0)
(-0.0741434 -0.0019246 0)
(-0.0735602 -0.00208644 0)
(-0.0729315 -0.00225398 0)
(-0.0722559 -0.00242725 0)
(-0.0715319 -0.00260626 0)
(-0.0707578 -0.00279097 0)
(-0.0699323 -0.0029813 0)
(-0.0690538 -0.00317712 0)
(-0.0681211 -0.00337823 0)
(-0.0671327 -0.00358439 0)