/*--------------------------------*- C++ -*----------------------------------*\
  =========                 |
  \\      /  F ield         | OpenFOAM: The Open Source CFD Toolbox
   \\    /   O peration     | Website:  https://openfoam.org
    \\  /    A nd           | Version:  7
     \\/     M anipulation  |
\*---------------------------------------------------------------------------*/
FoamFile
{
    version     2.0;
    format      ascii;
    class       volScalarField;
    location    "0.275";
    object      p;
}
// * * * * * * * * * * * * * * * * * * * * * * * * * * * * * * * * * * * * * //

dimensions      [0 2 -2 0 0 0 0];

internalField   nonuniform List<scalar> 
51200
(
-2.23483e-06
-5.7311e-06
-6.64254e-06
-5.00434e-06
-1.18237e-06
4.34653e-06
1.11371e-05
1.89233e-05
2.73095e-05
3.61765e-05
4.52643e-05
5.44167e-05
6.35305e-05
7.23998e-05
8.08991e-05
8.9e-05
9.65454e-05
0.000103453
0.000109709
0.000115249
0.000119994
0.000123942
0.000127061
0.000129285
0.000130586
0.000130956
0.0001304
0.00012889
0.000126421
0.000122999
0.000118623
0.000113285
0.000106977
9.97092e-05
9.15005e-05
8.23588e-05
7.22814e-05
6.12832e-05
4.93894e-05
3.66084e-05
2.29526e-05
8.44229e-06
-6.90809e-06
-2.30808e-05
-4.00568e-05
-5.78138e-05
-7.63365e-05
-9.55997e-05
-0.000115585
-0.000136271
-0.000157639
-0.000179673
-0.000202347
-0.000225638
-0.000249528
-0.000273994
-0.000299007
-0.000324535
-0.000350557
-0.000377059
-0.000404027
-0.000431437
-0.000459265
-0.000487479
-0.000516058
-0.000544978
-0.000574222
-0.000603772
-0.000633603
-0.000663686
-0.000693996
-0.000724515
-0.000755222
-0.000786097
-0.000817115
-0.000848252
-0.000879487
-0.000910795
-0.000942158
-0.000973552
-0.00100496
-0.00103635
-0.00106771
-0.00109902
-0.00113024
-0.00116136
-0.00119235
-0.00122319
-0.00125388
-0.00128437
-0.00131465
-0.00134468
-0.00137445
-0.00140394
-0.00143313
-0.001462
-0.00149052
-0.00151866
-0.00154641
-0.00157374
-0.00160061
-0.00162703
-0.00165296
-0.00167838
-0.00170328
-0.00172762
-0.00175138
-0.00177453
-0.00179707
-0.00181895
-0.00184017
-0.00186071
-0.00188054
-0.00189964
-0.00191799
-0.00193557
-0.00195235
-0.00196832
-0.00198346
-0.00199775
-0.00201119
-0.00202375
-0.00203541
-0.00204616
-0.00205599
-0.00206488
-0.00207282
-0.00207982
-0.00208586
-0.00209094
-0.00209506
-0.00209821
-0.0021004
-0.00210161
-0.00210187
-0.00210118
-0.00209957
-0.00209704
-0.00209364
-0.00208937
-0.00208428
-0.0020784
-0.00207179
-0.00206448
-0.00205655
-0.00204808
-0.00203914
-0.00202984
-0.00202029
-0.00201062
-0.00200099
-0.00199156
-0.00198253
-0.00197413
-0.00196661
-0.00196026
-0.00195536
-0.00195221
-0.00195106
-0.00195162
-4.26481e-06
-6.29761e-06
-6.61603e-06
-4.98284e-06
-1.6815e-06
2.97135e-06
8.83588e-06
1.54642e-05
2.28031e-05
3.05254e-05
3.84833e-05
4.65891e-05
5.46376e-05
6.2487e-05
7.00913e-05
7.7284e-05
8.39804e-05
9.01434e-05
9.56992e-05
0.000100541
0.000104662
0.000108045
0.000110633
0.000112388
0.000113301
0.000113346
0.000112492
0.000110718
0.00010803
0.000104431
9.99197e-05
9.44776e-05
8.81105e-05
8.08386e-05
7.26549e-05
6.35584e-05
5.35604e-05
4.26791e-05
3.093e-05
1.83158e-05
4.84751e-06
-9.44898e-06
-2.45538e-05
-4.04574e-05
-5.71481e-05
-7.4605e-05
-9.28128e-05
-0.000111744
-0.000131378
-0.000151699
-0.00017269
-0.000194329
-0.000216584
-0.000239432
-0.000262864
-0.000286869
-0.000311423
-0.000336494
-0.000362054
-0.000388083
-0.000414561
-0.000441468
-0.000468788
-0.000496494
-0.000524557
-0.000552955
-0.000581669
-0.000610682
-0.000639974
-0.000669517
-0.000699282
-0.000729254
-0.000759414
-0.000789741
-0.000820208
-0.000850789
-0.000881464
-0.000912215
-0.000943023
-0.000973865
-0.00100472
-0.00103556
-0.00106636
-0.0010971
-0.00112777
-0.00115833
-0.00118877
-0.00121907
-0.00124919
-0.00127913
-0.00130886
-0.00133835
-0.00136759
-0.00139656
-0.00142522
-0.00145356
-0.00148155
-0.00150917
-0.00153641
-0.00156323
-0.00158962
-0.00161556
-0.00164101
-0.00166596
-0.00169039
-0.00171427
-0.00173758
-0.00176031
-0.00178242
-0.00180391
-0.00182475
-0.00184492
-0.00186439
-0.00188315
-0.00190117
-0.00191844
-0.00193494
-0.00195064
-0.00196555
-0.00197963
-0.00199287
-0.00200526
-0.00201679
-0.00202743
-0.00203718
-0.00204602
-0.00205395
-0.00206097
-0.00206706
-0.00207224
-0.00207648
-0.00207981
-0.00208221
-0.00208369
-0.00208426
-0.00208393
-0.00208272
-0.00208065
-0.00207774
-0.00207403
-0.00206956
-0.00206435
-0.00205846
-0.00205195
-0.00204487
-0.00203729
-0.00202931
-0.00202101
-0.00201251
-0.00200393
-0.00199542
-0.00198712
-0.00197922
-0.00197191
-0.00196538
-0.00195988
-0.00195561
-0.00195277
-0.00195162
-0.00195217
-7.35822e-06
-8.72136e-06
-8.50482e-06
-6.70081e-06
-3.63202e-06
6.41593e-07
5.7975e-06
1.17719e-05
1.83316e-05
2.52448e-05
3.24579e-05
3.97372e-05
4.69724e-05
5.40798e-05
6.09435e-05
6.73979e-05
7.34353e-05
7.89854e-05
8.39484e-05
8.82626e-05
9.19229e-05
9.48578e-05
9.70124e-05
9.83843e-05
9.89617e-05
9.8706e-05
9.75932e-05
9.56098e-05
9.27525e-05
8.90151e-05
8.43825e-05
7.88462e-05
7.2426e-05
6.5132e-05
5.69474e-05
4.78781e-05
3.79455e-05
2.71571e-05
1.55177e-05
3.03361e-06
-1.02809e-05
-2.44071e-05
-3.93218e-05
-5.50125e-05
-7.14672e-05
-8.86706e-05
-0.000106608
-0.000125257
-0.000144592
-0.000164605
-0.000185281
-0.000206593
-0.000228514
-0.000251022
-0.000274099
-0.000297728
-0.000321888
-0.000346557
-0.000371716
-0.000397343
-0.000423413
-0.000449903
-0.000476792
-0.000504063
-0.000531692
-0.000559653
-0.000587929
-0.000616499
-0.000645342
-0.00067443
-0.000703739
-0.00073325
-0.000762947
-0.00079281
-0.000822813
-0.000852931
-0.000883139
-0.000913419
-0.000943753
-0.000974123
-0.00100451
-0.00103488
-0.00106521
-0.00109548
-0.00112567
-0.00115577
-0.00118575
-0.00121559
-0.00124526
-0.00127473
-0.001304
-0.00133303
-0.00136181
-0.00139032
-0.00141855
-0.00144645
-0.00147401
-0.0015012
-0.00152801
-0.0015544
-0.00158037
-0.0016059
-0.00163096
-0.00165552
-0.00167958
-0.00170308
-0.00172603
-0.00174839
-0.00177015
-0.00179131
-0.00181182
-0.00183169
-0.00185087
-0.00186934
-0.0018871
-0.00190412
-0.00192038
-0.00193588
-0.00195058
-0.00196449
-0.00197759
-0.00198985
-0.00200126
-0.00201182
-0.0020215
-0.00203032
-0.00203825
-0.00204529
-0.00205144
-0.0020567
-0.00206107
-0.00206454
-0.00206712
-0.00206882
-0.00206964
-0.00206961
-0.00206873
-0.00206704
-0.00206456
-0.00206131
-0.00205733
-0.00205267
-0.00204736
-0.00204147
-0.00203506
-0.00202819
-0.00202095
-0.00201343
-0.00200573
-0.00199796
-0.00199026
-0.00198278
-0.00197565
-0.00196907
-0.00196319
-0.00195822
-0.00195431
-0.00195163
-0.00195049
-0.00195103
-1.20502e-05
-1.27197e-05
-1.19838e-05
-9.95888e-06
-6.82121e-06
-2.77745e-06
2.10496e-06
7.64049e-06
1.36381e-05
2.0046e-05
2.66698e-05
3.33515e-05
4.00077e-05
4.65432e-05
5.27999e-05
5.87165e-05
6.42346e-05
6.92473e-05
7.37042e-05
7.75825e-05
8.08313e-05
8.33769e-05
8.51915e-05
8.62528e-05
8.65402e-05
8.6019e-05
8.46665e-05
8.24901e-05
7.94752e-05
7.56024e-05
7.08623e-05
6.52536e-05
5.87919e-05
5.14703e-05
4.32786e-05
3.42299e-05
2.43441e-05
1.36222e-05
2.06837e-06
-1.0305e-05
-2.34855e-05
-3.7462e-05
-5.22134e-05
-6.77299e-05
-8.39961e-05
-0.000100992
-0.000118702
-0.000137109
-0.000156195
-0.000175944
-0.000196337
-0.000217351
-0.000238966
-0.000261171
-0.000283944
-0.000307257
-0.000331085
-0.000355413
-0.000380221
-0.000405491
-0.000431202
-0.000457329
-0.000483849
-0.000510741
-0.000537982
-0.000565555
-0.000593442
-0.00062162
-0.000650063
-0.000678751
-0.000707659
-0.000736769
-0.000766061
-0.000795515
-0.000825106
-0.000854812
-0.000884612
-0.000914482
-0.000944404
-0.000974357
-0.00100432
-0.00103428
-0.0010642
-0.00109406
-0.00112383
-0.00115351
-0.00118308
-0.00121251
-0.00124177
-0.00127085
-0.00129971
-0.00132834
-0.00135672
-0.00138484
-0.00141267
-0.00144018
-0.00146736
-0.00149418
-0.00152061
-0.00154664
-0.00157225
-0.00159742
-0.00162212
-0.00164634
-0.00167006
-0.00169324
-0.00171587
-0.00173793
-0.0017594
-0.00178026
-0.0018005
-0.00182009
-0.00183902
-0.00185726
-0.00187479
-0.00189159
-0.00190766
-0.00192297
-0.00193752
-0.00195128
-0.00196425
-0.00197641
-0.00198774
-0.00199823
-0.00200787
-0.00201666
-0.00202459
-0.00203166
-0.00203787
-0.00204321
-0.00204769
-0.00205129
-0.00205404
-0.00205593
-0.00205698
-0.0020572
-0.00205661
-0.00205524
-0.00205311
-0.00205026
-0.0020467
-0.00204249
-0.00203767
-0.00203229
-0.00202642
-0.00202011
-0.00201346
-0.00200654
-0.00199945
-0.00199231
-0.00198522
-0.00197831
-0.00197172
-0.00196561
-0.00196012
-0.00195541
-0.00195165
-0.00194898
-0.00194767
-0.0019479
-1.80872e-05
-1.79445e-05
-1.66694e-05
-1.42928e-05
-1.10998e-05
-7.04302e-06
-2.32784e-06
2.91031e-06
8.58561e-06
1.45815e-05
2.07207e-05
2.69448e-05
3.31296e-05
3.91315e-05
4.48823e-05
5.0339e-05
5.53857e-05
5.99396e-05
6.3976e-05
6.74557e-05
7.03027e-05
7.24851e-05
7.39799e-05
7.47544e-05
7.47732e-05
7.4006e-05
7.24454e-05
7.00848e-05
6.69096e-05
6.28957e-05
5.80464e-05
5.23679e-05
4.58545e-05
3.84976e-05
3.02992e-05
2.12725e-05
1.14255e-05
7.59557e-07
-1.07214e-05
-2.3e-05
-3.6061e-05
-4.98967e-05
-6.44932e-05
-7.98401e-05
-9.59251e-05
-0.000112726
-0.000130222
-0.000148403
-0.000167259
-0.000186769
-0.000206904
-0.000227645
-0.000248976
-0.000270885
-0.000293356
-0.000316361
-0.000339876
-0.000363882
-0.00038836
-0.000413291
-0.000438657
-0.000464435
-0.000490599
-0.00051713
-0.000544008
-0.000571214
-0.000598729
-0.00062653
-0.000654593
-0.000682894
-0.000711416
-0.000740143
-0.00076905
-0.000798112
-0.000827306
-0.000856614
-0.000886016
-0.000915493
-0.000945021
-0.000974582
-0.00100415
-0.0010337
-0.00106322
-0.00109269
-0.00112207
-0.00115136
-0.00118053
-0.00120956
-0.00123843
-0.00126711
-0.00129559
-0.00132384
-0.00135185
-0.00137959
-0.00140705
-0.00143419
-0.001461
-0.00148745
-0.00151352
-0.00153921
-0.00156447
-0.00158931
-0.00161369
-0.00163758
-0.00166097
-0.00168384
-0.00170617
-0.00172794
-0.00174913
-0.00176972
-0.0017897
-0.00180904
-0.00182773
-0.00184574
-0.00186306
-0.00187967
-0.00189555
-0.0019107
-0.00192509
-0.00193872
-0.00195158
-0.00196364
-0.0019749
-0.00198533
-0.00199494
-0.00200372
-0.00201166
-0.00201876
-0.00202502
-0.00203044
-0.00203502
-0.00203876
-0.00204167
-0.00204375
-0.00204501
-0.00204547
-0.00204516
-0.00204409
-0.00204228
-0.00203978
-0.00203661
-0.00203282
-0.00202843
-0.00202352
-0.00201812
-0.00201231
-0.00200617
-0.00199976
-0.00199319
-0.00198655
-0.00197994
-0.00197348
-0.0019673
-0.00196152
-0.00195627
-0.00195169
-0.00194792
-0.0019451
-0.00194342
-0.00194303
-2.5343e-05
-2.42752e-05
-2.23419e-05
-1.96197e-05
-1.61551e-05
-1.20267e-05
-7.37229e-06
-2.24138e-06
3.22837e-06
8.90852e-06
1.47214e-05
2.05831e-05
2.63581e-05
3.19323e-05
3.72797e-05
4.23131e-05
4.69209e-05
5.10881e-05
5.47614e-05
5.78744e-05
6.03722e-05
6.22388e-05
6.34381e-05
6.39345e-05
6.36992e-05
6.27036e-05
6.09531e-05
5.84243e-05
5.50935e-05
5.095e-05
4.6001e-05
4.02481e-05
3.36746e-05
2.62791e-05
1.8073e-05
9.06167e-06
-7.55298e-07
-1.13712e-05
-2.27841e-05
-3.49764e-05
-4.79354e-05
-6.16501e-05
-7.61093e-05
-9.13023e-05
-0.000107218
-0.000123834
-0.000141133
-0.000159105
-0.000177739
-0.000197015
-0.000216907
-0.000237399
-0.000258474
-0.000280113
-0.000302299
-0.000325012
-0.000348227
-0.000371929
-0.000396097
-0.00042071
-0.00044575
-0.000471196
-0.000497021
-0.000523208
-0.00054974
-0.000576598
-0.000603761
-0.000631204
-0.000658905
-0.000686841
-0.000714998
-0.000743356
-0.000771893
-0.000800585
-0.000829406
-0.000858337
-0.000887362
-0.00091646
-0.00094561
-0.000974794
-0.00100399
-0.00103316
-0.0010623
-0.00109138
-0.00112039
-0.0011493
-0.0011781
-0.00120676
-0.00123526
-0.00126357
-0.00129167
-0.00131956
-0.00134721
-0.00137459
-0.0014017
-0.00142849
-0.00145495
-0.00148106
-0.00150679
-0.00153214
-0.00155708
-0.0015816
-0.00160567
-0.00162926
-0.00165235
-0.00167493
-0.00169697
-0.00171846
-0.00173939
-0.00175973
-0.00177946
-0.00179857
-0.00181704
-0.00183484
-0.00185196
-0.00186839
-0.0018841
-0.0018991
-0.00191336
-0.00192688
-0.00193963
-0.0019516
-0.00196279
-0.00197318
-0.00198276
-0.00199153
-0.00199949
-0.00200662
-0.00201294
-0.00201844
-0.00202313
-0.00202699
-0.00203005
-0.0020323
-0.00203377
-0.00203446
-0.00203439
-0.0020336
-0.0020321
-0.00202992
-0.0020271
-0.00202367
-0.00201968
-0.00201517
-0.00201019
-0.00200481
-0.0019991
-0.00199313
-0.00198698
-0.00198074
-0.00197451
-0.00196838
-0.00196248
-0.0019569
-0.00195176
-0.00194718
-0.00194327
-0.00194016
-0.00193796
-0.00193672
-3.36434e-05
-3.15215e-05
-2.89002e-05
-2.56722e-05
-2.18736e-05
-1.75822e-05
-1.28324e-05
-7.7153e-06
-2.37946e-06
3.13068e-06
8.72356e-06
1.42906e-05
1.97371e-05
2.50058e-05
3.0019e-05
3.46783e-05
3.89402e-05
4.27715e-05
4.61117e-05
4.88983e-05
5.10948e-05
5.26828e-05
5.36185e-05
5.38616e-05
5.33902e-05
5.21979e-05
5.02655e-05
4.75683e-05
4.40905e-05
3.9833e-05
3.47929e-05
2.89602e-05
2.23276e-05
1.48973e-05
6.67761e-06
-2.32819e-06
-1.21243e-05
-2.27003e-05
-3.40517e-05
-4.61656e-05
-5.90296e-05
-7.2635e-05
-8.69737e-05
-0.000102029
-0.00011779
-0.000134236
-0.00015136
-0.000169147
-0.000187579
-0.000206635
-0.000226297
-0.000246554
-0.00026739
-0.00028878
-0.000310705
-0.000333145
-0.000356082
-0.000379498
-0.000403375
-0.000427693
-0.000452431
-0.000477564
-0.00050307
-0.000528936
-0.000555145
-0.000581675
-0.000608504
-0.00063561
-0.00066297
-0.000690565
-0.00071838
-0.000746391
-0.000774577
-0.000802916
-0.000831386
-0.000859965
-0.000888634
-0.000917376
-0.000946171
-0.000974997
-0.00100383
-0.00103265
-0.00106143
-0.00109015
-0.0011188
-0.00114736
-0.00117581
-0.00120412
-0.00123226
-0.00126023
-0.00128799
-0.00131553
-0.00134284
-0.00136989
-0.00139666
-0.00142312
-0.00144925
-0.00147504
-0.00150047
-0.0015255
-0.00155014
-0.00157436
-0.00159813
-0.00162144
-0.00164425
-0.00166656
-0.00168834
-0.00170957
-0.00173025
-0.00175036
-0.00176987
-0.00178876
-0.00180703
-0.00182463
-0.00184158
-0.00185784
-0.0018734
-0.00188826
-0.0019024
-0.00191581
-0.00192847
-0.00194037
-0.0019515
-0.00196185
-0.00197141
-0.00198017
-0.00198815
-0.00199532
-0.0020017
-0.00200728
-0.00201206
-0.00201605
-0.00201925
-0.00202166
-0.00202331
-0.00202421
-0.00202438
-0.00202384
-0.00202261
-0.00202073
-0.00201822
-0.00201511
-0.00201146
-0.00200729
-0.00200268
-0.00199766
-0.0019923
-0.00198668
-0.00198087
-0.00197494
-0.00196899
-0.00196309
-0.00195735
-0.00195185
-0.00194671
-0.001942
-0.00193784
-0.00193433
-0.00193148
-0.00192924
-4.2719e-05
-3.95361e-05
-3.61139e-05
-3.23304e-05
-2.81295e-05
-2.35317e-05
-1.86076e-05
-1.34443e-05
-8.12743e-06
-2.67649e-06
2.75433e-06
8.10075e-06
1.33237e-05
1.83443e-05
2.30679e-05
2.74379e-05
3.14309e-05
3.49779e-05
3.80161e-05
4.05215e-05
4.24572e-05
4.37952e-05
4.44868e-05
4.4504e-05
4.38264e-05
4.24536e-05
4.03499e-05
3.74951e-05
3.38848e-05
2.952e-05
2.4389e-05
1.84784e-05
1.17881e-05
4.32444e-06
-3.91219e-06
-1.2921e-05
-2.27014e-05
-3.32471e-05
-4.45473e-05
-5.65915e-05
-6.93701e-05
-8.28797e-05
-9.71097e-05
-0.000112042
-0.00012766
-0.000143952
-0.000160915
-0.000178532
-0.00019678
-0.000215638
-0.000235092
-0.000255132
-0.000275741
-0.000296899
-0.000318582
-0.000340773
-0.000363452
-0.000386601
-0.000410207
-0.000434247
-0.0004587
-0.000483542
-0.000508754
-0.00053432
-0.000560227
-0.000586451
-0.000612966
-0.000639753
-0.000666793
-0.000694069
-0.000721563
-0.000749251
-0.000777109
-0.000805116
-0.000833251
-0.000861498
-0.000889835
-0.000918243
-0.000946701
-0.00097519
-0.00100369
-0.00103217
-0.00106061
-0.001089
-0.00111732
-0.00114555
-0.00117366
-0.00120163
-0.00122945
-0.00125709
-0.00128452
-0.00131175
-0.00133874
-0.00136547
-0.00139193
-0.00141808
-0.00144391
-0.0014694
-0.00149452
-0.00151927
-0.00154363
-0.00156757
-0.00159107
-0.00161411
-0.00163666
-0.00165871
-0.00168025
-0.00170125
-0.00172171
-0.00174159
-0.0017609
-0.0017796
-0.00179767
-0.00181511
-0.00183188
-0.00184799
-0.00186342
-0.00187816
-0.00189219
-0.0019055
-0.00191808
-0.00192992
-0.00194099
-0.00195131
-0.00196085
-0.00196962
-0.00197762
-0.00198483
-0.00199127
-0.00199692
-0.0020018
-0.0020059
-0.00200923
-0.0020118
-0.00201363
-0.00201472
-0.00201509
-0.00201478
-0.0020138
-0.00201217
-0.00200993
-0.00200712
-0.00200375
-0.00199989
-0.00199558
-0.00199086
-0.00198579
-0.00198045
-0.00197489
-0.00196919
-0.00196342
-0.00195766
-0.00195199
-0.00194648
-0.00194123
-0.0019363
-0.0019318
-0.0019278
-0.0019242
-0.00192088
-5.23909e-05
-4.80255e-05
-4.3785e-05
-3.9437e-05
-3.47353e-05
-2.97565e-05
-2.46064e-05
-1.9314e-05
-1.39111e-05
-8.49155e-06
-3.14974e-06
2.07983e-06
7.14048e-06
1.19499e-05
1.64426e-05
2.0598e-05
2.43578e-05
2.76627e-05
3.04575e-05
3.27311e-05
3.44413e-05
3.55508e-05
3.60209e-05
3.58393e-05
3.4988e-05
3.34423e-05
3.11774e-05
2.81809e-05
2.44543e-05
1.99879e-05
1.47613e-05
8.77382e-06
2.03237e-06
-5.46567e-06
-1.37228e-05
-2.27386e-05
-3.25091e-05
-4.30304e-05
-5.42872e-05
-6.62754e-05
-7.89832e-05
-9.24096e-05
-0.00010654
-0.00012136
-0.000136853
-0.00015301
-0.000169825
-0.000187282
-0.000205358
-0.000224038
-0.000243305
-0.000263148
-0.000283549
-0.000304487
-0.000325945
-0.000347905
-0.000370346
-0.000393251
-0.000416605
-0.000440387
-0.000464573
-0.000489143
-0.00051408
-0.000539371
-0.000564995
-0.000590932
-0.000617156
-0.000643648
-0.000670389
-0.000697363
-0.000724554
-0.000751936
-0.000779485
-0.000807182
-0.000835006
-0.000862939
-0.000890963
-0.000919059
-0.000947207
-0.00097538
-0.00100356
-0.00103172
-0.00105984
-0.00108792
-0.00111593
-0.00114385
-0.00117165
-0.00119931
-0.00122681
-0.00125414
-0.00128128
-0.0013082
-0.00133489
-0.00136134
-0.0013875
-0.00141336
-0.00143891
-0.00146411
-0.00148896
-0.00151345
-0.00153754
-0.00156122
-0.00158447
-0.00160725
-0.00162956
-0.00165138
-0.0016727
-0.00169349
-0.00171373
-0.00173342
-0.00175254
-0.00177105
-0.00178896
-0.00180623
-0.00182286
-0.00183883
-0.00185414
-0.00186877
-0.0018827
-0.00189593
-0.00190844
-0.00192021
-0.00193125
-0.00194153
-0.00195107
-0.00195985
-0.00196786
-0.00197512
-0.00198161
-0.00198734
-0.00199231
-0.00199652
-0.00199997
-0.00200269
-0.00200467
-0.00200594
-0.00200651
-0.0020064
-0.00200563
-0.00200424
-0.00200224
-0.00199967
-0.00199656
-0.00199294
-0.00198888
-0.00198441
-0.00197957
-0.00197444
-0.00196907
-0.00196352
-0.00195786
-0.00195215
-0.00194647
-0.00194087
-0.00193543
-0.00193021
-0.00192529
-0.00192074
-0.00191635
-0.00191189
-6.23766e-05
-5.68445e-05
-5.176e-05
-4.67672e-05
-4.15395e-05
-3.61892e-05
-3.07316e-05
-2.52138e-05
-1.97083e-05
-1.4275e-05
-8.93222e-06
-3.75089e-06
1.19632e-06
5.85146e-06
1.01916e-05
1.41783e-05
1.77379e-05
2.0832e-05
2.34358e-05
2.55155e-05
2.70267e-05
2.79353e-05
2.8218e-05
2.78638e-05
2.68519e-05
2.51446e-05
2.27321e-05
1.96125e-05
1.57759e-05
1.12086e-05
5.89636e-06
-1.61815e-07
-6.95567e-06
-1.44919e-05
-2.2774e-05
-3.18007e-05
-4.15656e-05
-5.20661e-05
-6.32864e-05
-7.5226e-05
-8.78776e-05
-0.000101232
-0.000115273
-0.00012999
-0.000145374
-0.000161415
-0.0001781
-0.000195409
-0.000213327
-0.000231843
-0.000250941
-0.000270606
-0.000290817
-0.000311556
-0.000332805
-0.000354549
-0.00037677
-0.000399451
-0.000422574
-0.000446116
-0.000470056
-0.000494375
-0.000519057
-0.000544091
-0.000569455
-0.000595122
-0.000621072
-0.000647289
-0.000673756
-0.000700452
-0.000727357
-0.000754452
-0.000781715
-0.000809121
-0.000836653
-0.000864293
-0.000892025
-0.000919829
-0.00094768
-0.000975558
-0.00100344
-0.0010313
-0.00105914
-0.00108692
-0.00111464
-0.00114226
-0.00116977
-0.00119714
-0.00122436
-0.0012514
-0.00127825
-0.0013049
-0.00133131
-0.00135748
-0.00138337
-0.00140896
-0.00143424
-0.00145919
-0.00148378
-0.00150802
-0.00153186
-0.0015553
-0.00157831
-0.00160087
-0.00162296
-0.00164457
-0.00166567
-0.00168626
-0.00170632
-0.00172583
-0.00174477
-0.00176312
-0.00178087
-0.001798
-0.00181449
-0.00183035
-0.00184555
-0.00186007
-0.00187392
-0.00188707
-0.00189952
-0.00191125
-0.00192225
-0.00193251
-0.00194204
-0.00195083
-0.00195887
-0.00196617
-0.00197272
-0.00197852
-0.00198358
-0.00198789
-0.00199146
-0.0019943
-0.00199643
-0.00199786
-0.0019986
-0.00199868
-0.00199811
-0.00199691
-0.00199512
-0.00199276
-0.00198986
-0.00198646
-0.0019826
-0.00197831
-0.00197366
-0.00196869
-0.00196344
-0.00195798
-0.00195236
-0.00194664
-0.00194088
-0.00193512
-0.00192943
-0.00192385
-0.00191846
-0.00191331
-0.00190809
-0.00190249
-7.25236e-05
-6.58411e-05
-5.98658e-05
-5.4203e-05
-4.84555e-05
-4.26692e-05
-3.68549e-05
-3.10954e-05
-2.5441e-05
-1.99117e-05
-1.45271e-05
-9.37041e-06
-4.48622e-06
8.90457e-08
4.33084e-06
8.17614e-06
1.15798e-05
1.45134e-05
1.69613e-05
1.88722e-05
2.02069e-05
2.09434e-05
2.10699e-05
2.0567e-05
1.93999e-05
1.75501e-05
1.50109e-05
1.17791e-05
7.83519e-06
3.1693e-06
-2.21988e-06
-8.33961e-06
-1.51861e-05
-2.27628e-05
-3.10748e-05
-4.01167e-05
-4.98842e-05
-6.03685e-05
-7.15608e-05
-8.34623e-05
-9.60663e-05
-0.000109357
-0.000123319
-0.000137948
-0.000153237
-0.000169174
-0.000185742
-0.000202922
-0.000220701
-0.000239069
-0.000258011
-0.000277511
-0.000297549
-0.000318107
-0.000339167
-0.000360716
-0.000382735
-0.000405209
-0.000428117
-0.000451437
-0.00047515
-0.000499239
-0.00052369
-0.000548487
-0.000573605
-0.000599024
-0.000624722
-0.000650684
-0.000676895
-0.000703333
-0.000729975
-0.000756804
-0.000783796
-0.000810931
-0.000838192
-0.000865561
-0.000893021
-0.000920552
-0.000948129
-0.000975729
-0.00100333
-0.00103092
-0.00105848
-0.001086
-0.00111344
-0.00114079
-0.00116803
-0.00119513
-0.00122207
-0.00124885
-0.00127544
-0.00130183
-0.00132798
-0.00135389
-0.00137953
-0.00140487
-0.00142991
-0.00145461
-0.00147898
-0.00150298
-0.0015266
-0.00154982
-0.00157261
-0.00159496
-0.00161684
-0.00163825
-0.00165917
-0.00167958
-0.00169946
-0.00171881
-0.00173759
-0.00175579
-0.0017734
-0.0017904
-0.00180678
-0.00182252
-0.00183762
-0.00185207
-0.00186584
-0.00187893
-0.00189132
-0.00190301
-0.00191398
-0.00192423
-0.00193376
-0.00194256
-0.00195063
-0.00195797
-0.00196457
-0.00197044
-0.00197558
-0.00197999
-0.00198368
-0.00198664
-0.0019889
-0.00199047
-0.00199137
-0.00199161
-0.00199121
-0.00199019
-0.00198857
-0.00198639
-0.00198367
-0.00198044
-0.00197674
-0.0019726
-0.00196808
-0.0019632
-0.00195803
-0.00195261
-0.00194698
-0.00194118
-0.00193528
-0.00192932
-0.00192332
-0.00191734
-0.00191144
-0.00190567
-0.00189961
-0.00189287
-8.26672e-05
-7.48216e-05
-6.79697e-05
-6.16679e-05
-5.53548e-05
-4.90847e-05
-4.29244e-05
-3.69082e-05
-3.10384e-05
-2.53511e-05
-1.99023e-05
-1.47304e-05
-9.85376e-06
-5.3041e-06
-1.13665e-06
2.60492e-06
5.89744e-06
8.71971e-06
1.10356e-05
1.27972e-05
1.39842e-05
1.4584e-05
1.45771e-05
1.39331e-05
1.26276e-05
1.06549e-05
8.00594e-06
4.6683e-06
6.24685e-07
-4.13359e-06
-9.60027e-06
-1.57804e-05
-2.26777e-05
-3.0295e-05
-3.86397e-05
-4.76994e-05
-5.74697e-05
-6.79456e-05
-7.91218e-05
-9.09957e-05
-0.000103559
-0.000116797
-0.000130694
-0.000145249
-0.000160456
-0.000176299
-0.000192761
-0.000209826
-0.000227483
-0.00024572
-0.000264522
-0.000283873
-0.000303755
-0.000324148
-0.000345036
-0.000366406
-0.000388244
-0.00041053
-0.000433241
-0.000456357
-0.000479863
-0.000503742
-0.000527981
-0.000552559
-0.000577453
-0.000602642
-0.000628107
-0.000653835
-0.000679809
-0.000706008
-0.000732408
-0.000758988
-0.000785731
-0.000812615
-0.000839624
-0.000866743
-0.000893952
-0.000921229
-0.00094855
-0.000975892
-0.00100324
-0.00103058
-0.00105788
-0.00108515
-0.00111234
-0.00113943
-0.00116642
-0.00119327
-0.00121996
-0.00124649
-0.00127284
-0.00129899
-0.00132491
-0.00135058
-0.00137598
-0.0014011
-0.0014259
-0.00145039
-0.00147454
-0.00149833
-0.00152174
-0.00154476
-0.00156735
-0.0015895
-0.0016112
-0.00163243
-0.00165318
-0.00167342
-0.00169315
-0.00171235
-0.00173099
-0.00174906
-0.00176654
-0.00178343
-0.0017997
-0.00181535
-0.00183037
-0.00184473
-0.00185844
-0.00187147
-0.00188382
-0.00189547
-0.00190643
-0.00191667
-0.00192621
-0.00193502
-0.00194312
-0.00195051
-0.00195717
-0.00196311
-0.00196832
-0.00197282
-0.00197661
-0.00197968
-0.00198207
-0.00198377
-0.0019848
-0.00198518
-0.00198493
-0.00198406
-0.0019826
-0.00198057
-0.00197799
-0.00197489
-0.00197131
-0.00196729
-0.00196285
-0.00195803
-0.00195289
-0.00194745
-0.00194176
-0.00193585
-0.00192977
-0.00192354
-0.00191721
-0.00191079
-0.00190436
-0.00189794
-0.00189104
-0.00188319
-9.26116e-05
-8.36836e-05
-7.60059e-05
-6.90356e-05
-6.21374e-05
-5.53928e-05
-4.88737e-05
-4.25464e-05
-3.6426e-05
-3.05737e-05
-2.50203e-05
-1.97729e-05
-1.48576e-05
-1.03129e-05
-6.19136e-06
-2.50695e-06
7.12728e-07
3.44543e-06
5.64705e-06
7.28912e-06
8.36292e-06
8.84952e-06
8.72089e-06
7.94869e-06
6.52723e-06
4.44695e-06
1.69651e-06
-1.74353e-06
-5.87986e-06
-1.07161e-05
-1.6252e-05
-2.24948e-05
-2.94463e-05
-3.71076e-05
-4.54833e-05
-5.45631e-05
-6.43408e-05
-7.48152e-05
-8.59856e-05
-9.78399e-05
-0.000110368
-0.000123559
-0.000137404
-0.000151902
-0.00016704
-0.000182799
-0.000199168
-0.000216133
-0.000233684
-0.000251805
-0.000270484
-0.000289702
-0.00030944
-0.000329684
-0.00035042
-0.000371632
-0.000393304
-0.000415418
-0.00043795
-0.000460882
-0.000484199
-0.000507889
-0.000531934
-0.00055631
-0.000580997
-0.000605977
-0.000631232
-0.000656747
-0.000682503
-0.000708479
-0.000734655
-0.000761009
-0.000787521
-0.000814174
-0.000840952
-0.00086784
-0.000894817
-0.000921859
-0.000948943
-0.000976049
-0.00100316
-0.00103026
-0.00105734
-0.00108437
-0.00111132
-0.00113819
-0.00116494
-0.00119155
-0.00121802
-0.00124433
-0.00127046
-0.00129638
-0.00132208
-0.00134754
-0.00137272
-0.00139763
-0.00142223
-0.00144651
-0.00147046
-0.00149406
-0.00151728
-0.00154011
-0.00156252
-0.0015845
-0.00160603
-0.0016271
-0.0016477
-0.00166779
-0.00168738
-0.00170645
-0.00172496
-0.00174291
-0.00176028
-0.00177707
-0.00179325
-0.00180882
-0.00182376
-0.00183806
-0.00185172
-0.00186471
-0.00187702
-0.00188865
-0.00189959
-0.00190983
-0.00191938
-0.00192822
-0.00193635
-0.00194378
-0.00195049
-0.0019565
-0.00196179
-0.00196637
-0.00197025
-0.00197343
-0.00197592
-0.00197774
-0.0019789
-0.00197941
-0.00197928
-0.00197854
-0.0019772
-0.00197529
-0.00197283
-0.00196984
-0.00196635
-0.00196239
-0.001958
-0.00195321
-0.00194805
-0.00194256
-0.00193677
-0.0019307
-0.0019244
-0.00191789
-0.00191118
-0.00190431
-0.00189732
-0.00189027
-0.00188253
-0.00187359
-0.000102307
-9.23433e-05
-8.38333e-05
-7.61934e-05
-6.87477e-05
-6.15363e-05
-5.45967e-05
-4.79316e-05
-4.15652e-05
-3.55289e-05
-2.98185e-05
-2.44577e-05
-1.9478e-05
-1.49211e-05
-1.08062e-05
-7.14109e-06
-3.95752e-06
-1.29934e-06
8.11074e-07
2.36687e-06
3.35296e-06
3.73814e-06
3.49839e-06
2.61855e-06
1.09936e-06
-1.07555e-06
-3.92551e-06
-7.45908e-06
-1.16793e-05
-1.65881e-05
-2.219e-05
-2.8492e-05
-3.5499e-05
-4.32081e-05
-5.16189e-05
-6.07208e-05
-7.05124e-05
-8.09943e-05
-9.2164e-05
-0.000104003
-0.000116504
-0.000129661
-0.000143468
-0.000157919
-0.000172998
-0.000188687
-0.000204977
-0.000221857
-0.000239314
-0.000257335
-0.000275904
-0.000295003
-0.000314617
-0.000334728
-0.000355328
-0.0003764
-0.000397926
-0.000419882
-0.00044225
-0.000465017
-0.000488169
-0.000511687
-0.000535554
-0.000559746
-0.000584245
-0.000609034
-0.000634097
-0.000659418
-0.000684976
-0.00071075
-0.00073672
-0.000762865
-0.000789167
-0.00081561
-0.000842178
-0.000868854
-0.000895617
-0.000922443
-0.000949309
-0.000976197
-0.00100309
-0.00102998
-0.00105684
-0.00108366
-0.0011104
-0.00113705
-0.00116358
-0.00118999
-0.00121625
-0.00124235
-0.00126828
-0.001294
-0.0013195
-0.00134475
-0.00136975
-0.00139445
-0.00141887
-0.00144297
-0.00146674
-0.00149017
-0.00151322
-0.00153588
-0.00155813
-0.00157995
-0.00160133
-0.00162225
-0.00164271
-0.00166268
-0.00168214
-0.00170109
-0.00171949
-0.00173734
-0.00175462
-0.00177131
-0.00178742
-0.00180292
-0.0018178
-0.00183205
-0.00184566
-0.00185861
-0.0018709
-0.00188252
-0.00189345
-0.0019037
-0.00191326
-0.00192212
-0.00193029
-0.00193776
-0.00194453
-0.0019506
-0.00195597
-0.00196063
-0.00196459
-0.00196787
-0.00197046
-0.00197239
-0.00197365
-0.00197427
-0.00197426
-0.00197362
-0.00197239
-0.00197058
-0.0019682
-0.00196528
-0.00196186
-0.00195794
-0.00195357
-0.00194876
-0.00194355
-0.00193797
-0.00193204
-0.00192579
-0.00191924
-0.00191242
-0.00190533
-0.00189798
-0.00189044
-0.00188274
-0.0018742
-0.00186421
-0.000111679
-0.000100675
-9.13512e-05
-8.30959e-05
-7.51116e-05
-6.74007e-05
-6.00297e-05
-5.3035e-05
-4.64055e-05
-4.01332e-05
-3.42358e-05
-2.87493e-05
-2.36917e-05
-1.9087e-05
-1.49362e-05
-1.12692e-05
-8.11641e-06
-5.51292e-06
-3.45601e-06
-1.96058e-06
-1.04973e-06
-7.57033e-07
-1.08972e-06
-2.05134e-06
-3.65945e-06
-5.92484e-06
-8.86626e-06
-1.24832e-05
-1.67807e-05
-2.17596e-05
-2.74277e-05
-3.37894e-05
-4.0852e-05
-4.86068e-05
-5.70517e-05
-6.61796e-05
-7.59944e-05
-8.64936e-05
-9.76658e-05
-0.000109497
-0.000121982
-0.000135117
-0.000148896
-0.000163308
-0.000178337
-0.000193968
-0.000210195
-0.000227005
-0.000244382
-0.000262316
-0.00028079
-0.000299787
-0.000319289
-0.000339287
-0.000359768
-0.000380716
-0.000402108
-0.000423925
-0.000446149
-0.000468768
-0.000491771
-0.000515136
-0.000538842
-0.000562869
-0.0005872
-0.000611818
-0.000636707
-0.000661851
-0.00068723
-0.00071282
-0.000738602
-0.000764557
-0.000790669
-0.000816923
-0.000843302
-0.000869786
-0.000896351
-0.000922978
-0.000949645
-0.000976337
-0.00100304
-0.00102973
-0.0010564
-0.00108302
-0.00110956
-0.00113601
-0.00116236
-0.00118857
-0.00121465
-0.00124056
-0.0012663
-0.00129184
-0.00131716
-0.00134223
-0.00136704
-0.00139158
-0.00141583
-0.00143977
-0.00146338
-0.00148664
-0.00150954
-0.00153205
-0.00155415
-0.00157584
-0.00159708
-0.00161788
-0.00163822
-0.00165807
-0.00167743
-0.00169627
-0.00171457
-0.00173233
-0.00174953
-0.00176615
-0.00178219
-0.00179763
-0.00181247
-0.00182668
-0.00184025
-0.00185318
-0.00186545
-0.00187706
-0.001888
-0.00189826
-0.00190784
-0.00191674
-0.00192495
-0.00193247
-0.00193929
-0.00194542
-0.00195085
-0.00195559
-0.00195964
-0.001963
-0.00196569
-0.0019677
-0.00196906
-0.00196978
-0.00196986
-0.00196932
-0.00196817
-0.00196643
-0.00196412
-0.00196125
-0.00195786
-0.00195396
-0.00194957
-0.00194472
-0.00193944
-0.00193374
-0.00192765
-0.00192119