/*--------------------------------*- C++ -*----------------------------------*\
  =========                 |
  \\      /  F ield         | OpenFOAM: The Open Source CFD Toolbox
   \\    /   O peration     | Website:  https://openfoam.org
    \\  /    A nd           | Version:  7
     \\/     M anipulation  |
\*---------------------------------------------------------------------------*/
FoamFile
{
    version     2.0;
    format      ascii;
    class       volScalarField;
    location    "0.3625";
    object      p;
}
// * * * * * * * * * * * * * * * * * * * * * * * * * * * * * * * * * * * * * //

dimensions      [0 2 -2 0 0 0 0];

internalField   nonuniform List<scalar> 
12800
(
-2.59065e-06
0.000177247
-0.000908636
-0.00335291
-0.00691087
-0.0113358
-0.0163944
-0.0218734
-0.0275861
-0.0333723
-0.0390958
-0.0446411
-0.049911
-0.0548238
-0.0593117
-0.0633186
-0.0667987
-0.0697154
-0.0720399
-0.0737503
-0.0748308
-0.075271
-0.0750651
-0.0742114
-0.0727117
-0.0705712
-0.0677975
-0.0644006
-0.0603923
-0.0557864
-0.0505976
-0.0448421
-0.0385368
-0.0316992
-0.0243475
-0.0165002
-0.00817592
0.000606597
0.00982859
0.0194715
0.0295169
0.0399467
0.0507433
0.0618894
0.0733682
0.0851634
0.0972593
0.109641
0.122293
0.135203
0.148356
0.16174
0.175342
0.189152
0.203159
0.217351
0.23172
0.246256
0.260951
0.275797
0.290785
0.305911
0.321166
0.336545
0.352042
0.367652
0.383371
0.399193
0.415116
0.431134
0.447246
0.463447
0.479734
0.496106
0.512559
0.52909
0.545699
0.562382
0.579137
0.595962
0.612855
0.629814
0.646837
0.66392
0.681062
0.69826
0.715511
0.732811
0.750158
0.767547
0.784974
0.802434
0.819923
0.837434
0.854962
0.8725
0.89004
0.907575
0.925095
0.942592
0.960054
0.977472
0.994833
1.01212
1.02933
1.04644
1.06344
1.08031
1.09702
1.11358
1.12994
1.14611
1.16204
1.17772
1.19313
1.20824
1.22303
1.23747
1.25154
1.2652
1.27843
1.2912
1.30349
1.31525
1.32648
1.33713
1.34718
1.3566
1.36537
1.37346
1.38084
1.38749
1.3934
1.39853
1.40289
1.40645
1.4092
1.41114
1.41227
1.41258
1.4121
1.41083
1.40879
1.40601
1.40253
1.3984
1.39367
1.3884
1.38269
1.37662
1.37031
1.36389
1.35752
1.35139
1.34569
1.34069
1.33664
1.33383
1.33255
1.33272
-0.000186878
-4.43694e-06
-0.00100754
-0.00313983
-0.00617769
-0.0099456
-0.0142698
-0.0189798
-0.023919
-0.0289482
-0.0339452
-0.0388039
-0.0434332
-0.047755
-0.0517034
-0.0552232
-0.0582683
-0.0608014
-0.0627922
-0.0642172
-0.0650588
-0.0653042
-0.0649455
-0.0639787
-0.0624031
-0.0602214
-0.0574389
-0.0540632
-0.0501039
-0.0455722
-0.0404809
-0.0348437
-0.0286757
-0.0219923
-0.0148098
-0.0071449
0.000985478
0.00956416
0.0185739
0.0279976
0.0378182
0.0480188
0.0585828
0.0694941
0.0807368
0.0922955
0.104155
0.116302
0.128721
0.141399
0.154324
0.167482
0.180863
0.194456
0.208248
0.222231
0.236395
0.25073
0.265229
0.279883
0.294685
0.309628
0.324705
0.33991
0.355237
0.370681
0.386237
0.401901
0.417667
0.433533
0.449494
0.465547
0.481688
0.497915
0.514224
0.530614
0.54708
0.563621
0.580234
0.596916
0.613665
0.630478
0.647352
0.664286
0.681275
0.698317
0.715408
0.732544
0.749723
0.766939
0.784188
0.801464
0.818763
0.836079
0.853404
0.870733
0.888057
0.905368
0.922657
0.939915
0.957131
0.974294
0.991393
1.00841
1.02534
1.04217
1.05887
1.07544
1.09185
1.10809
1.12414
1.13998
1.15559
1.17094
1.18602
1.20079
1.21525
1.22935
1.24309
1.25642
1.26933
1.28179
1.29377
1.30524
1.31618
1.32657
1.33637
1.34557
1.35413
1.36203
1.36926
1.37579
1.3816
1.38668
1.39102
1.3946
1.39742
1.39947
1.40076
1.40129
1.40108
1.40013
1.39847
1.39613
1.39315
1.38958
1.38547
1.38088
1.3759
1.37062
1.36514
1.35959
1.35411
1.34886
1.34401
1.33977
1.33632
1.33389
1.33271
1.33288
0.000896396
0.000999329
-4.34596e-06
-0.00198861
-0.0047382
-0.00811094
-0.0119667
-0.0161638
-0.0205688
-0.0250604
-0.0295295
-0.0338797
-0.0380266
-0.0418971
-0.0454282
-0.0485668
-0.0512679
-0.0534942
-0.0552154
-0.0564073
-0.0570511
-0.057133
-0.0566436
-0.0555773
-0.0539319
-0.0517083
-0.04891
-0.0455429
-0.0416148
-0.0371353
-0.0321152
-0.0265669
-0.0205035
-0.0139392
-0.00688852
0.000633197
0.00861039
0.0170272
0.0258676
0.0351157
0.0447553
0.0547708
0.0651465
0.0758671
0.0869174
0.0982829
0.109949
0.121903
0.134129
0.146617
0.159353
0.172325
0.185522
0.198933
0.212547
0.226355
0.240347
0.254514
0.268848
0.283341
0.297985
0.312773
0.327699
0.342756
0.357938
0.373241
0.388658
0.404186
0.419819
0.435553
0.451384
0.46731
0.483325
0.499427
0.515613
0.531878
0.548222
0.56464
0.581129
0.597687
0.614311
0.630999
0.647745
0.664549
0.681406
0.698314
0.715267
0.732263
0.749297
0.766365
0.783461
0.800581
0.817719
0.834868
0.852022
0.869173
0.886314
0.903437
0.920532
0.93759
0.9546
0.971551
0.988431
1.00523
1.02193
1.03852
1.05498
1.0713
1.08746
1.10345
1.11923
1.13481
1.15015
1.16523
1.18004
1.19455
1.20873
1.22257
1.23604
1.24911
1.26176
1.27397
1.28571
1.29695
1.30767
1.31785
1.32746
1.33647
1.34488
1.35264
1.35976
1.36619
1.37194
1.37699
1.38132
1.38493
1.38781
1.38997
1.39139
1.3921
1.3921
1.39141
1.39006
1.38807
1.38549
1.38235
1.37871
1.37464
1.37022
1.36552
1.36064
1.35571
1.35084
1.34617
1.34187
1.33808
1.33497
1.33271
1.33154
1.3316
0.00334204
0.00313495
0.0019784
-1.10311e-05
-0.00265402
-0.00582701
-0.00941015
-0.0132828
-0.0173302
-0.0214461
-0.025534
-0.029507
-0.033288
-0.0368094
-0.0400125
-0.0428468
-0.0452693
-0.047244
-0.0487411
-0.0497366
-0.0502115
-0.0501514
-0.0495462
-0.0483894
-0.0466776
-0.0444107
-0.0415909
-0.0382228
-0.0343129
-0.0298694
-0.0249018
-0.0194213
-0.0134395
-0.00696938
-2.43553e-05
0.00738153
0.0152338
0.0235177
0.0322183
0.0413206
0.0508094
0.0606699
0.0708872
0.0814467
0.0923342
0.103535
0.115037
0.126825
0.138887
0.151211
0.163784
0.176595
0.189632
0.202886
0.216345
0.229999
0.243841
0.25786
0.272049
0.2864
0.300904
0.315556
0.330347
0.345273
0.360327
0.375503
0.390796
0.406201
0.421714
0.43733
0.453045
0.468855
0.484756
0.500745
0.516818
0.532972
0.549203
0.56551
0.581887
0.598333
0.614843
0.631416
0.648047
0.664733
0.681471
0.698256
0.715085
0.731955
0.748859
0.765794
0.782754
0.799733
0.816727
0.833728
0.850729
0.867724
0.884704
0.901661
0.918585
0.935467
0.952297
0.969063
0.985753
1.00236
1.01886
1.03524
1.0515
1.06761
1.08355
1.09932
1.11489
1.13024
1.14535
1.16021
1.17479
1.18907
1.20303
1.21664
1.22989
1.24275
1.25519
1.26719
1.27873
1.28978
1.30033
1.31034
1.31979
1.32867
1.33695
1.34461
1.35164
1.35801
1.36372
1.36874
1.37308
1.37672
1.37966
1.38191
1.38346
1.38432
1.3845
1.38403
1.38293
1.38122
1.37895
1.37615
1.37289
1.36922
1.36521
1.36094
1.3565
1.35199
1.34753
1.34324
1.33925
1.33569
1.33271
1.33045
1.3291
1.3288
0.00691242
0.00618485
0.00473163
0.00262023
-3.33849e-05
-0.00312327
-0.00654637
-0.0102009
-0.0139892
-0.0178194
-0.0216067
-0.0252738
-0.0287514
-0.031978
-0.0348995
-0.0374689
-0.0396458
-0.041396
-0.0426909
-0.0435071
-0.0438259
-0.043633
-0.0429177
-0.041673
-0.0398949
-0.0375825
-0.034737
-0.0313619
-0.0274627
-0.0230464
-0.0181215
-0.0126979
-0.00678624
-0.000398246
0.0064537
0.0137566
0.0214971
0.0296614
0.0382354
0.047205
0.0565561
0.0662745
0.0763462
0.0867571
0.0974938
0.108543
0.119891
0.131525
0.143433
0.155603
0.168023
0.180682
0.193569
0.206673
0.219985
0.233495
0.247193
0.261071
0.275122
0.289336
0.303706
0.318226
0.332889
0.347688
0.362617
0.37767
0.392843
0.408129
0.423525
0.439026
0.454627
0.470324
0.486113
0.501991
0.517954
0.533998
0.55012
0.566317
0.582584
0.598919
0.615318
0.631778
0.648295
0.664866
0.681487
0.698153
0.714861
0.731607
0.748385
0.76519
0.782017
0.798861
0.815715
0.832573
0.849428
0.866272
0.883097
0.899895
0.916657
0.933372
0.95003
0.96662
0.983131
0.99955
1.01586
1.03206
1.04812
1.06403
1.07977
1.09534
1.1107
1.12584
1.14075
1.1554
1.16977
1.18384
1.1976
1.21101
1.22406
1.23672
1.24897
1.26079
1.27215
1.28304
1.29342
1.30329
1.31261
1.32136
1.32954
1.33711
1.34406
1.35038
1.35606
1.36107
1.36542
1.3691
1.3721
1.37443
1.3761
1.3771
1.37745
1.37718
1.3763
1.37484
1.37284
1.37034
1.3674
1.36406
1.36039
1.35647
1.35237
1.34819
1.34403
1.33999
1.33618
1.33272
1.32974
1.32734
1.32565
1.32475
0.0113713
0.00998173
0.00811971
0.00578751
0.00302359
-8.27565e-05
-0.00344298
-0.00697264
-0.0105895
-0.014215
-0.0177755
-0.0212032
-0.0244367
-0.0274207
-0.030106
-0.0324495
-0.034414
-0.0359674
-0.0370827
-0.0377379
-0.0379147
-0.0375991
-0.0367807
-0.0354523
-0.0336094
-0.0312504
-0.028376
-0.024989
-0.0210939
-0.0166969
-0.0118056
-0.00642882
-0.000576311
0.0057412
0.0125123
0.0197249
0.0273665
0.0354243
0.043885
0.0527354
0.061962
0.0715515
0.0814905
0.0917658
0.102364
0.113273
0.12448
0.135972
0.147737
0.159764
0.172042
0.184559
0.197305
0.210269
0.223443
0.236816
0.250379
0.264124
0.278043
0.292128
0.306371
0.320766
0.335305
0.349982
0.364791
0.379727
0.394784
0.409956
0.425239
0.440628
0.456119
0.471706
0.487387
0.503158
0.519013
0.534951
0.550966
0.567055
0.583215
0.599442
0.615733
0.632083
0.64849
0.664949
0.681456
0.698006
0.714597
0.731222
0.747878
0.764558
0.781258
0.797971
0.814692
0.831413
0.848127
0.864827
0.881505
0.898152
0.914759
0.931316
0.947813
0.964238
0.98058
0.996827
1.01297
1.02898
1.04486
1.06059
1.07615
1.09152
1.1067
1.12165
1.13637
1.15083
1.16501
1.1789
1.19246
1.20569
1.21856
1.23105
1.24313
1.25478
1.26599
1.27673
1.28698
1.29671
1.30592
1.31457
1.32266
1.33016
1.33705
1.34333
1.34899
1.354
1.35837
1.36208
1.36515
1.36756
1.36933
1.37046
1.37097
1.37087
1.37019
1.36895
1.36718
1.36494
1.36225
1.35919
1.35579
1.35214
1.3483
1.34435
1.34039
1.33649
1.33276
1.32929
1.32618
1.32353
1.32138
1.31973
0.0164975
0.0143607
0.0120094
0.00937688
0.00641941
0.00321148
-0.000170634
-0.00365798
-0.00718237
-0.0106773
-0.0140797
-0.0173309
-0.0203769
-0.0231686
-0.0256621
-0.0278185
-0.0296038
-0.0309886
-0.031948
-0.0324611
-0.0325111
-0.0320844
-0.031171
-0.0297638
-0.0278584
-0.0254529
-0.0225474
-0.0191443
-0.0152474
-0.0108624
-0.00599597
-0.000656197
0.00514792
0.0114065
0.0181089
0.0252439
0.0327998
0.0407645
0.0491255
0.0578704
0.0669864
0.0764608
0.0862808
0.0964339
0.106908
0.117689
0.128767
0.14013
0.151764
0.163661
0.175807
0.188194
0.200809
0.213644
0.226689
0.239935
0.253372
0.266992
0.280788
0.294751
0.308875
0.323151
0.337573
0.352136
0.366831
0.381655
0.396601
0.411664
0.42684
0.442122
0.457507
0.47299
0.488566
0.504233
0.519985
0.535819
0.551731
0.567718
0.583774
0.599897
0.616083
0.632328
0.648627
0.664978
0.681375
0.697815
0.714293
0.730803
0.747341
0.763902
0.78048
0.797069
0.813662
0.830253
0.846835
0.863399
0.879939
0.896444
0.912906
0.929315
0.945661
0.961933
0.978118
0.994206
1.01018
1.02603
1.04175
1.05731
1.0727
1.0879
1.10291
1.11769
1.13223
1.14652
1.16054
1.17425
1.18766
1.20072
1.21343
1.22577
1.2377
1.24922
1.26029
1.2709
1.28103
1.29066
1.29977
1.30834
1.31635
1.32379
1.33065
1.3369
1.34254
1.34756
1.35195
1.35571
1.35884
1.36133
1.36319
1.36444
1.36508
1.36514
1.36462
1.36357
1.362
1.35996
1.35749
1.35464
1.35145
1.348
1.34433
1.34054
1.33667
1.33283
1.32907
1.32549
1.32217
1.31919
1.31649
1.31399
0.0220898
0.01916
0.0162658
0.0132735
0.0100574
0.00667962
0.00320621
-0.000307617
-0.00380626
-0.00723424
-0.0105382
-0.0136679
-0.0165766
-0.0192214
-0.0215635
-0.0235683
-0.0252052
-0.0264477
-0.0272732
-0.0276625
-0.0276001
-0.0270735
-0.0260733
-0.0245927
-0.0226275
-0.0201758
-0.0172376
-0.0138149
-0.00991121
-0.00553152
-0.000682126
0.00462957
0.0103952
0.0166055
0.0232506
0.03032
0.0378025
0.0456867
0.053961
0.0626135
0.0716319
0.0810043
0.0907185
0.100762
0.111124
0.121791
0.132753
0.143998
0.155514
0.167291
0.179317
0.191584
0.20408
0.216795
0.229721
0.242849
0.256169
0.269674
0.283354
0.297204
0.311215
0.32538
0.339692
0.354146
0.368735
0.383453
0.398294
0.413253
0.428325
0.443506
0.458789
0.474172
0.489649
0.505216
0.520869
0.536604
0.552417
0.568304
0.58426
0.600283
0.616368
0.632511
0.648708
0.664955
0.681247
0.69758
0.713949
0.73035
0.746776
0.763223
0.779685
0.796155
0.812628
0.829096
0.845552
0.861989
0.878398
0.89477
0.911097
0.927368
0.943574
0.959703
0.975744
0.991685
1.00751
1.02322
1.03878
1.05418
1.06942
1.08447
1.09932
1.11395
1.12834
1.14248
1.15634
1.16991
1.18317
1.19609
1.20867
1.22087
1.23267
1.24407
1.25503
1.26554
1.27557
1.28511
1.29414
1.30264
1.3106
1.318
1.32482
1.33106
1.33669
1.34173
1.34615
1.34995
1.35313
1.3557
1.35766
1.35901
1.35977
1.35996
1.35959
1.35868
1.35728
1.35541
1.3531
1.35041
1.34737
1.34405
1.3405
1.33678
1.33294
1.32907
1.32521
1.32144
1.31783
1.31445
1.31115
1.30777
0.0279727
0.0242311
0.0207618
0.0173674
0.0138438
0.0102428
0.00662247
0.00302584
-0.000502682
-0.00391752
-0.0071742
-0.0102302
-0.0130457
-0.0155837
-0.0178104
-0.0196955
-0.021212
-0.0223364
-0.0230484
-0.0233309
-0.0231699
-0.022554
-0.0214748
-0.019926
-0.017904
-0.0154068
-0.0124347
-0.00898941
-0.00507427
-0.000693983
0.00414558
0.00943746
0.0151738
0.0213459
0.0279443
0.0349592
0.0423799
0.0501958
0.0583956
0.0669681
0.0759016
0.0851846
0.0948054
0.104753
0.115015
0.12558
0.136437
0.147576
0.158985
0.170654
0.182571
0.194728
0.207115
0.219721
0.232538
0.245556
0.258768
0.272165
0.28574
0.299483
0.313389
0.32745
0.34166
0.356012
0.370499
0.385117
0.399859
0.41472
0.429694
0.444778
0.459965
0.475252
0.490633
0.506105
0.521663
0.537303
0.553021
0.568812
0.584673
0.6006
0.616588
0.632634
0.648732
0.664879
0.68107
0.697301
0.713567
0.729862
0.746182
0.762521
0.778872
0.795231
0.811589
0.827941
0.84428
0.860596
0.876883
0.893131
0.909331
0.925475
0.941551
0.957548
0.973456
0.989262
1.00495
1.02052
1.03594
1.05121
1.06631
1.08122
1.09593
1.11043
1.12468
1.13869
1.15242
1.16586
1.17899
1.19179
1.20425
1.21633
1.22803
1.23933
1.25019
1.26061
1.27056
1.28004
1.28901
1.29746
1.30537
1.31274
1.31955
1.32578
1.33142
1.33647
1.34093
1.34477
1.34802
1.35066
1.3527
1.35414
1.35501
1.35531
1.35506
1.35429
1.35301
1.35127
1.34908
1.34651
1.34357
1.34033
1.33683
1.33312
1.32925
1.32529
1.32127
1.31725
1.3133
1.30948
1.30554
1.30126
0.0339952
0.0294417
0.0253807
0.0215562
0.0176894
0.0138245
0.0100132
0.00628805
0.00268366
-0.000763242
-0.00401612
-0.00703969
-0.00980037
-0.0122668
-0.0144101
-0.0162042
-0.0176256
-0.0186538
-0.019271
-0.0194624
-0.0192154
-0.0185202
-0.0173694
-0.0157575
-0.0136814
-0.0111396
-0.00813253
-0.00466197
-0.000731212
0.00365521
0.00849166
0.0137715
0.0194872
0.0256305
0.0321924
0.0391635
0.0465337
0.0542927
0.0624298
0.0709342
0.0797949
0.0890007
0.0985404
0.108403
0.118577
0.129053
0.139818
0.150862
0.162175
0.173746
0.185566
0.197624
0.209911
0.222418
0.235135
0.248054
0.261167
0.274465
0.28794
0.301586
0.315394
0.329359
0.343472
0.357729
0.372121
0.386645
0.401294
0.416062
0.430944
0.445936
0.461032
0.476227
0.491518
0.506899
0.522367
0.537916
0.553543
0.569243
0.585012
0.600847
0.616742
0.632694
0.648698
0.66475
0.680845
0.696979
0.713146
0.729341
0.74556
0.761795
0.778042
0.794295
0.810546
0.826789
0.843016
0.85922
0.875393
0.891525
0.907609
0.923634
0.93959
0.955466
0.971252
0.986935
1.0025
1.01794
1.03324
1.04839
1.06336
1.07815
1.09274
1.10711
1.12125
1.13514
1.14875
1.16208
1.17511
1.1878
1.20016
1.21215
1.22376
1.23497
1.24576
1.25611
1.26601
1.27542
1.28435
1.29277
1.30066
1.30801
1.31481
1.32104
1.32671
1.33178
1.33627
1.34017
1.34347
1.34618
1.34829
1.34983
1.35078
1.35118
1.35104
1.35036
1.34919
1.34754
1.34545
1.34295
1.34007
1.33686
1.33336
1.32961
1.32566
1.32155
1.31732
1.31301
1.30869
1.30439
1.2998
1.29462
0.0400289
0.0346746
0.0300169
0.0257451
0.0215104
0.0173513
0.0133149
0.00942488
0.00570712
0.0021907
-0.00109498
-0.00412113
-0.00686007
-0.00928566
-0.0113737
-0.013102
-0.0144507
-0.0154024
-0.0159418
-0.0160561
-0.0157347
-0.0149694
-0.0137537
-0.0120833
-0.00995571
-0.00737002
-0.00432694
-0.000828527
0.00312185
0.00751968
0.0123594
0.0176346
0.023338
0.0294616
0.0359967
0.0429342
0.0502646
0.0579778
0.0660637
0.0745117
0.0833113
0.0924518
0.101922
0.111712
0.121811
0.132208
0.142892
0.153853
0.165081
0.176566
0.188298
0.200268
0.212466
0.224883
0.23751
0.250338
0.26336
0.276568
0.289953
0.303509
0.317228
0.331103
0.345127
0.359295
0.373599
0.388035
0.402596
0.417277
0.432072
0.446978
0.461987
0.477097
0.492301
0.507596
0.522978
0.538441
0.553981
0.569594
0.585276
0.601023
0.61683
0.632693
0.648607
0.664568
0.680572
0.696612
0.712686
0.728786
0.744908
0.761047
0.777195
0.793348
0.809498
0.825638
0.841762
0.857861
0.873928
0.889953
0.905928
0.921844
0.93769
0.953456
0.969131
0.984703
1.00016
1.01549
1.03068
1.04571
1.06058
1.07526
1.08974
1.104
1.11804
1.13182
1.14534
1.15858
1.17151
1.18413
1.1964
1.20832
1.21986
1.231
1.24173
1.25203
1.26188
1.27126
1.28016
1.28856
1.29644
1.30379
1.31059
1.31684
1.32253
1.32764
1.33217
1.33612
1.33948
1.34225
1.34444
1.34605
1.34709
1.34757
1.3475
1.34691
1.34582
1.34424
1.3422
1.33974
1.33689
1.33367
1.33013
1.3263
1.32222
1.31793
1.31345
1.30882
1.30408
1.2993
1.29405
1.288
0.0459629
0.0398263
0.0345751
0.0298472
0.0252287
0.0207538
0.0164666
0.0123832
0.00852208
0.00490555
0.00155673
-0.00150148
-0.00424676
-0.00665784
-0.00871482
-0.0103994
-0.0116952
-0.0125876
-0.013064
-0.0131138
-0.0127284
-0.0119009
-0.0106264
-0.00890146
-0.00672453
-0.00409536
-0.00101512
0.00251376
0.0064877
0.0109021
0.0157514
0.0210292
0.0267283
0.0328409
0.0393586
0.0462726
0.0535736
0.0612519
0.0692975
0.0777005
0.0864505
0.0955372
0.10495
0.114679
0.124713
0.135043
0.145658
0.156547
0.167702
0.179111
0.190766
0.202658
0.214776
0.227113
0.239659
0.252407
0.265347
0.278473
0.291776
0.30525
0.318886
0.332679
0.346621
0.360707
0.37493
0.389284
0.403764
0.418363
0.433078
0.447902
0.46283
0.477858
0.492982
0.508196
0.523495
0.538876
0.554335
0.569865
0.585465
0.601128
0.616851
0.632629
0.648458
0.664333
0.680249
0.696202
0.712186
0.728197
0.744228
0.760275
0.776331
0.79239
0.808445
0.82449
0.840517
0.856518
0.872487
0.888413
0.904289
0.920105
0.93585
0.951515
0.96709
0.982561
0.997918
1.01315
1.02824
1.04317
1.05794
1.07253
1.08692
1.1011
1.11504
1.12874
1.14218
1.15534
1.1682
1.18074
1.19295
1.20481
1.2163
1.2274
1.23809
1.24835
1.25817
1.26754
1.27642
1.28481
1.29269
1.30005
1.30688
1.31315
1.31887
1.32402
1.3286
1.3326
1.33602
1.33886
1.34111
1.3428
1.34391
1.34446
1.34447
1.34394
1.3429
1.34137
1.33936
1.33691
1.33405
1.33079
1.32718
1.32323
1.31899
1.31448
1.30973
1.30475
1.29959
1.29431
1.28842
1.28152
0.051702
0.0448059
0.0389697
0.0337835
0.0287719
0.0239667
0.01941
0.0151115
0.0110834
0.00734221
0.00390547
0.00079081
-0.00198432
-0.00440311
-0.00644969
-0.00810946
-0.00936921
-0.0102173
-0.0106436
-0.0106399
-0.0101992
-0.00931649
-0.00798813
-0.00621198
-0.0039873
-0.00131465
0.0018042
0.00536636
0.00936793
0.0138041
0.0186691
0.0239565
0.0296593
0.0357696
0.0422792
0.0491794
0.0564612
0.0641151
0.0721314
0.0805005
0.0892121
0.0982565
0.107623
0.117303
0.127284
0.137558
0.148114
0.158943
0.170034
0.181379
0.192968
0.204791
0.21684
0.229107
0.241582
0.254257
0.267125
0.280177
0.293407
0.306806
0.320368
0.334086
0.347954
0.361964
0.376112
0.390391
0.404795
0.419319
0.433958
0.448706
0.463559
0.478511
0.493558
0.508696
0.523918
0.539222
0.554603
0.570056
0.585576
0.601161
0.616804
0.632502
0.648249
0.664043
0.679877
0.695746
0.711647
0.727573
0.743519
0.759479
0.775448
0.791419
0.807386
0.823342
0.839279
0.855191
0.871068
0.886904
0.902689
0.918413
0.934068
0.949642
0.965126
0.980508
0.995776
1.01092
1.02592
1.04077
1.05546
1.06997
1.08428
1.09838
1.11225
1.12588
1.13926
1.15235
1.16516
1.17765
1.18981
1.20163
1.21308
1.22415
1.23481
1.24506
1.25487
1.26423
1.27312
1.28152
1.28941
1.2968
1.30365
1.30996
1.31572
1.32092
1.32556
1.32961
1.33309
1.336
1.33832
1.34007
1.34124
1.34186
1.34192
1.34145
1.34044
1.33894
1.33694
1.33448
1.33158
1.32825
1.32454
1.32045
1.31603
1.31128
1.30622
1.30088
1.2953
1.28951
1.28299
1.27528
0.0571635
0.0495329
0.043124
0.0374817
0.0320731
0.0269286
0.0220893
0.0175598
0.0133467
0.00946166
0.00591715
0.00272622
-9.80722e-05
-0.00254299
-0.00459643
-0.0062472
-0.0074852
-0.00830157
-0.00868874
-0.00864051
-0.00815202
-0.00721978
-0.00584162
-0.00401663
-0.0017451
0.000971573
0.00413092
0.0077295
0.011763
0.0162262
0.0211132
0.0264175
0.0321317
0.0382483
0.0447589
0.051655
0.0589277
0.0665676
0.0745654
0.0829114
0.0915959
0.100609
0.109941
0.119582
0.129522
0.139751
0.15026
0.161039
0.172078
0.183369
0.194901
0.206667
0.218657
0.230862
0.243275
0.255887
0.268691
0.281679
0.294843
0.308176
0.321671
0.335322
0.349122
0.363064
0.377144
0.391354
0.405689
0.420143
0.434712
0.44939
0.464173
0.479054
0.49403
0.509095
0.524246
0.539478
0.554785
0.570165
0.585611
0.601121
0.616689
0.632311
0.647982
0.663699
0.679455
0.695246
0.711068
0.726914
0.74278
0.758659
0.774547
0.790436
0.806321
0.822194
0.838048
0.853877
0.869672
0.885424
0.901126
0.916768
0.932341
0.947834
0.963238
0.978541
0.993731
1.0088
1.02373
1.03851
1.05312
1.06756
1.08181
1.09585
1.10966
1.12324
1.13656
1.14962
1.16238
1.17483
1.18697
1.19876
1.21019
1.22124
1.2319
1.24215
1.25196
1.26133
1.27023
1.27866
1.28659
1.29401
1.3009
1.30726
1.31307
1.31833
1.32302
1.32714
1.33069
1.33366
1.33604
1.33785
1.33909
1.33976
1.33987
1.33943
1.33846
1.33696
1.33495
1.33246
1.3295
1.32609
1.32225
1.31801
1.31337
1.30837
1.303
1.29729
1.29127
1.28499
1.27786
1.26935
0.0622749
0.053936
0.0469689
0.0408762
0.0350707
0.0295824
0.0244522
0.0196804
0.015269
0.0112253
0.00755753
0.00427461
0.00138563
-0.00110035
-0.00317472
-0.00482948
-0.00605747
-0.00685249
-0.00720938
-0.00712407
-0.00659361
-0.00561621
-0.00419115
-0.00231878
-4.76587e-07
0.00276143
0.0059637
0.00960228
0.0136723
0.0181682
0.0230837
0.028412
0.0341458
0.0402772
0.046798
0.0536996
0.0609732
0.0686095
0.0765994
0.0849332
0.0936015
0.102595
0.111903
0.121517
0.131426
0.141622
0.152094
0.162834
0.173832
0.185079
0.196566
0.208283
0.220224
0.232378
0.244739
0.257297
0.270046
0.282977
0.296084
0.309359
0.322795
0.336386
0.350125
0.364007
0.378024
0.392172
0.406444
0.420835
0.43534
0.449953
0.46467
0.479486
0.494396
0.509395
0.524478
0.539642
0.554881
0.570192
0.585569
0.601008
0.616506
0.632056
0.647656
0.6633
0.678983
0.694701
0.710448
0.72622
0.742011
0.757815
0.773627
0.78944
0.805248
0.821045
0.836824
0.852576
0.868295
0.883972
0.899599
0.915167
0.930667
0.946088
0.961421
0.976655
0.991778
1.00678
1.02165
1.03636
1.05092
1.06531
1.0795
1.09349
1.10727
1.12081
1.13409
1.14711
1.15985
1.17229
1.18441
1.19619
1.20761
1.21867
1.22934
1.2396
1.24943
1.25883
1.26777
1.27623
1.2842
1.29167
1.29862
1.30503
1.31091
1.31623
1.32099
1.32518
1.32879
1.33183
1.33428
1.33616
1.33745
1.33817
1.33832
1.33791
1.33695
1.33545
1.33342
1.33088
1.32785
1.32433
1.32036
1.31593
1.31108
1.3058
1.30012
1.29403
1.28758
1.28082
1.27308
1.26383
0.0669729
0.0579515
0.0504422
0.043907
0.0377076
0.0318745
0.0264489
0.0214275
0.0168084
0.0125952
0.00879249
0.00540547
0.00243973
-9.90768e-05
-0.00220551
-0.00387455
-0.00510183
-0.00588365
-0.00621716
-0.0061004
-0.0055323
-0.00451273
-0.00304245
-0.00112313
0.00124275
0.00405186
0.00730016
0.0109828
0.0150945
0.019629
0.0245798
0.0299397
0.0357011
0.0418561
0.0483964
0.0553132
0.0625977
0.0702409
0.0782334
0.086566
0.095229
0.104213
0.113509
0.123107
0.132997
0.14317
0.153617
0.164329
0.175296
0.186509
0.197961
0.209641
0.221541
0.233654
0.245971
0.258485
0.271187
0.284071
0.297129
0.310353
0.323738
0.337277
0.350963
0.36479
0.378753
0.392844
0.40706
0.421393
0.43584
0.450395
0.465052
0.479807
0.494656
0.509593
0.524615
0.539715
0.554891
0.570137
0.585449
0.600823
0.616254
0.631738
0.64727
0.662846
0.678461
0.69411
0.709788
0.72549
0.741211
0.756945
0.772687
0.78843
0.804168
0.819895
0.835603
0.851287
0.866937
0.882546
0.898106
0.913608
0.929043
0.944402
0.959673
0.974848
0.989914
1.00486
1.01967
1.03434
1.04886
1.0632
1.07736
1.09131
1.10506
1.11857
1.13184
1.14484
1.15757
1.17
1.18212
1.19391
1.20535
1.21642
1.22711
1.2374
1.24728
1.25671
1.2657
1.27421
1.28224
1.28977
1.29679
1.30327
1.30922
1.31462
1.31945
1.32372
1.32741
1.33052
1.33304
1.33498
1.33633
1.33709
1.33728
1.33689
1.33594
1.33442
1.33236
1.32976
1.32664
1.32301
1.31889
1.31427
1.30919
1.30364
1.29763
1.29116
1.28429
1.27705
1.26874
1.25876
0.0712009
0.0615225
0.0534873
0.046519
0.0399312
0.0337548
0.0280323
0.0227572
0.0179244
0.0135342
0.0095882
0.00608821
0.00303668
0.000436209
-0.0017107
-0.00340182
-0.00463533
-0.00540997
-0.0057251
-0.00558077
-0.00497777
-0.00391762
-0.00240257
-0.000435598
0.00197964
0.0048388
0.00813695
0.0118685
0.0160274
0.020607
0.0256002
0.0309995
0.0367971
0.0429847
0.0495538
0.0564957
0.0638014
0.0714619
0.0794678
0.0878099
0.0964788
0.105465
0.114759
0.124352
0.134234
0.144396
0.154828
0.165523
0.17647
0.18766
0.199086
0.210739
0.222609
0.23469
0.246974
0.259451
0.272116
0.284961
0.297978
0.31116
0.324502
0.337996
0.351636
0.365415
0.379329
0.393372
0.407536
0.421819
0.436213
0.450714
0.465318
0.480018
0.494811
0.509691
0.524655
0.539697
0.554814
0.57
0.585252
0.600565
0.615934
0.631356
0.646825
0.662338
0.677889
0.693474
0.709088
0.724725
0.740381
0.75605
0.771727
0.787405
0.803079
0.818742
0.834387
0.850007
0.865596
0.881144
0.896645
0.912089
0.927468
0.942772
0.957991
0.973115
0.988134
1.00304
1.01781
1.03244
1.04692
1.06123
1.07536
1.0893
1.10303
1.11653
1.12979
1.14279
1.15552
1.16797
1.1801
1.19191
1.20338
1.21449
1.22522
1.23555
1.24548
1.25497
1.26402
1.2726
1.2807
1.28831
1.2954
1.30197
1.308
1.31348
1.3184
1.32275
1.32652
1.32971
1.33231
1.33431
1.33572
1.33653
1.33675
1.33638
1.33543
1.3339
1.3318
1.32913
1.32592
1.32216
1.31788
1.31307
1.30774
1.30191
1.29558
1.28874
1.28145
1.27375
1.26488
1.25421
0.0749085
0.0645975
0.0560528
0.048662
0.0416925
0.0351766
0.0291579
0.0236276
0.0185778
0.0140062
0.00991127
0.00629226
0.00314868
0.00048032
-0.00171299
-0.00343159
-0.00467609
-0.00544751
-0.00574735
-0.0055776
-0.00494086
-0.00384029
-0.00227961
-0.000263125
0.0022043
0.00511728
0.00846993
0.0122559
0.0164683
0.0210999
0.0261433
0.0315903
0.0374328
0.0436622
0.0502699
0.057247
0.0645842
0.0722726
0.0803028
0.0886654
0.0973512
0.106351
0.115655
0.125254
0.135138
0.1453
0.155729
0.166417
0.177354
0.188532
0.199943
0.211578
0.223428
0.235487
0.247746
0.260197
0.272833
0.285647
0.298631
0.31178
0.325085
0.338542
0.352143
0.365882
0.379755
0.393754
0.407875
0.422112
0.436459
0.450913
0.465468
0.480118
0.49486
0.509689
0.5246
0.539589
0.554651
0.569782
0.584978
0.600235
0.615547
0.630911
0.646322
0.661775
0.677267
0.692793
0.708346
0.723924
0.73952
0.755129
0.770746
0.786365
0.80198
0.817585
0.833173
0.848737
0.86427
0.879765
0.895213
0.910607
0.925937
0.941195
0.956371
0.971455
0.986436
1.0013
1.01605
1.03065
1.04511
1.0594
1.07352
1.08745
1.10117
1.11467
1.12794
1.14096
1.15371
1.16617
1.17834
1.19018
1.2017
1.21285
1.22364
1.23404
1.24403
1.2536
1.26272
1.27138
1.27957
1.28727
1.29445
1.30112
1.30725
1.31282
1.31784
1.32228
1.32614
1.32941
1.33209
1.33416
1.33563
1.33649
1.33675
1.33639
1.33544
1.33389
1.33174
1.32901
1.3257
1.32181
1.31736
1.31235
1.30679
1.30068
1.29402
1.28682
1.27912
1.27096
1.26155
1.25021
0.0780502
0.0671295
0.0580916
0.0502892
0.0429458
0.0360954
0.0297833
0.0239985
0.0187308
0.0139755
0.00972877
0.00598718
0.00274773
7.67273e-06
-0.00223563
-0.00398491
-0.00524306
-0.00601327
-0.00629906
-0.00610433
-0.00543342
-0.00429111
-0.0026826
-0.000613524
0.00191004
0.00488161
0.00829432
0.0121409
0.0164139
0.0211053
0.0262069
0.0317104
0.0376071
0.0438881
0.0505444
0.057567
0.0649465
0.0726736
0.080739
0.0891334
0.0978472
0.106871
0.116196
0.125813
0.135712
0.145884
0.15632
0.167012
0.17795
0.189126
0.200532
0.212159
0.224
0.236046
0.248289
0.260722
0.273338
0.28613
0.29909
0.312213
0.32549
0.338917
0.352486
0.366192
0.38003
0.393993
0.408075
0.422273
0.43658
0.450992
0.465503
0.480109
0.494805
0.509588
0.524451
0.539391
0.554403
0.569484
0.584629
0.599833
0.615092
0.630403
0.64576
0.661159
0.676596
0.692066
0.707565
0.723087
0.738628
0.754183
0.769745
0.78531
0.800872
0.816424
0.83196
0.847474
0.862958
0.878406
0.893809
0.90916
0.92445
0.93967
0.954811
0.969862
0.984815
0.999658
1.01438
1.02897
1.04341
1.0577
1.07181
1.08574
1.09948
1.11299
1.12628
1.13933
1.15211
1.16461
1.17682
1.18872
1.20029
1.21152
1.22237
1.23285
1.24292
1.25258
1.26179
1.27055
1.27884
1.28664
1.29394
1.30071
1.30695
1.31263
1.31775
1.3223
1.32626
1.32963
1.33239
1.33454
1.33607
1.33698
1.33727
1.33694
1.33599
1.33442
1.33223
1.32942
1.32601
1.32199
1.31737
1.31216
1.30636
1.29997
1.293
1.28543
1.27732
1.26873
1.2588
1.24683
0.0805845
0.0690757
0.0595601
0.051357
0.0436483
0.0364697
0.0298683
0.0238313
0.0183467
0.0134076
0.0090082
0.00514268
0.00180576
-0.00100761
-0.00330236
-0.00508344
-0.00635591
-0.007125
-0.00739618
-0.00717521
-0.00646812
-0.00528127
-0.00362135
-0.00149533
0.00108947
0.00412547
0.00760478
0.0115193
0.0158606
0.02062
0.0257889
0.0313582
0.0373189
0.0436616
0.050377
0.0574558
0.0648885
0.0726655
0.0807774
0.0892148
0.0979682
0.107028
0.116385
0.126031
0.135955
0.146149
0.156603
0.16731
0.17826
0.189445
0.200856
0.212486
0.224325
0.236368
0.248605
0.26103
0.273635
0.286413
0.299357
0.312461
0.325718
0.339122
0.352667
0.366347
0.380156
0.394089
0.40814
0.422304
0.436577
0.450952
0.465425
0.479992
0.494648
0.509388
0.524209
0.539105
0.554072
0.569107
0.584204
0.59936
0.614571
0.629833
0.64514
0.660489
0.675876
0.691295
0.706743
0.722215
0.737706
0.75321
0.768723
0.784239
0.799752
0.815257
0.830748
0.846218
0.86166
0.877067
0.892432
0.907747
0.923003
0.938193
0.953307
0.968335
0.983268
0.998095
1.01281
1.02739
1.04183
1.05612
1.07024
1.08419
1.09794
1.11149
1.12481
1.13789
1.15072
1.16328
1.17555
1.18752
1.19916
1.21046
1.22141
1.23197
1.24215
1.2519
1.26123
1.2701
1.27851
1.28643
1.29384
1.30074
1.3071
1.31291
1.31815
1.32281
1.32688
1.33035
1.3332
1.33544
1.33704
1.33802
1.33835
1.33804
1.33709
1.3355
1.33326
1.33039
1.32687
1.32272
1.31794
1.31253
1.30649
1.29983
1.29254
1.28462
1.27612
1.2671
1.25667
1.24408
0.0824735
0.0703962
0.0604176
0.0518247
0.0437596
0.0362597
0.0293741
0.0230887
0.0173897
0.0122686
0.0077175
0.00372865
0.000294658
-0.00259163
-0.00493728
-0.00674933
-0.00803487
-0.0088011
-0.00905537
-0.0088052
-0.00805831
-0.00682264
-0.00510632
-0.0029177
-0.00026532
0.00284207
0.00639557
0.0103861
0.0148044
0.0196412
0.0248869
0.0305321
0.0365671
0.0429821
0.0497676
0.0569138