/*--------------------------------*- C++ -*----------------------------------*\
  =========                 |
  \\      /  F ield         | OpenFOAM: The Open Source CFD Toolbox
   \\    /   O peration     | Website:  https://openfoam.org
    \\  /    A nd           | Version:  7
     \\/     M anipulation  |
\*---------------------------------------------------------------------------*/
FoamFile
{
    version     2.0;
    format      ascii;
    class       surfaceScalarField;
    location    "0.3625";
    object      phi;
}
// * * * * * * * * * * * * * * * * * * * * * * * * * * * * * * * * * * * * * //

dimensions      [0 3 -1 0 0 0 0];

internalField   nonuniform List<scalar> 
25360
(
1.14507e-10
-1.14129e-10
3.59668e-10
-2.45155e-10
6.04232e-10
-2.44591e-10
7.65077e-10
-1.60855e-10
7.9805e-10
-3.29686e-11
6.81325e-10
1.16717e-10
4.06284e-10
2.75033e-10
-2.774e-11
4.34027e-10
-6.16624e-10
5.88889e-10
-1.35335e-09
7.36725e-10
-2.22915e-09
8.75799e-10
-3.23424e-09
1.0051e-09
-4.35834e-09
1.1241e-09
-5.59092e-09
1.23257e-09
-6.92144e-09
1.33052e-09
-8.33955e-09
1.41811e-09
-9.83514e-09
1.49559e-09
-1.13984e-08
1.5633e-09
-1.30201e-08
1.62162e-09
-1.4691e-08
1.67097e-09
-1.64028e-08
1.71182e-09
-1.81475e-08
1.74462e-09
-1.99173e-08
1.76984e-09
-2.17053e-08
1.78796e-09
-2.35047e-08
1.79946e-09
-2.53095e-08
1.8048e-09
-2.7114e-08
1.80445e-09
-2.89128e-08
1.79885e-09
-3.07013e-08
1.78844e-09
-3.24749e-08
1.77365e-09
-3.42298e-08
1.75488e-09
-3.59623e-08
1.73253e-09
-3.76693e-08
1.70696e-09
-3.93478e-08
1.67854e-09
-4.09954e-08
1.6476e-09
-4.26099e-08
1.61447e-09
-4.41893e-08
1.57944e-09
-4.57321e-08
1.5428e-09
-4.72369e-08
1.50481e-09
-4.87027e-08
1.46572e-09
-5.01284e-08
1.42576e-09
-5.15136e-08
1.38514e-09
-5.28576e-08
1.34406e-09
-5.41603e-08
1.3027e-09
-5.54215e-08
1.26121e-09
-5.66413e-08
1.21975e-09
-5.78197e-08
1.17845e-09
-5.89571e-08
1.13743e-09
-6.00539e-08
1.09679e-09
-6.11106e-08
1.05663e-09
-6.21276e-08
1.01702e-09
-6.31056e-08
9.78048e-10
-6.40454e-08
9.39758e-10
-6.49476e-08
9.02202e-10
-6.5813e-08
8.65418e-10
-6.66424e-08
8.29435e-10
-6.74367e-08
7.94274e-10
-6.81967e-08
7.59947e-10
-6.89231e-08
7.26459e-10
-6.96169e-08
6.93808e-10
-7.02789e-08
6.61986e-10
-7.09099e-08
6.30977e-10
-7.15107e-08
6.00761e-10
-7.2082e-08
5.71313e-10
-7.26246e-08
5.42601e-10
-7.31392e-08
5.1459e-10
-7.36264e-08
4.87241e-10
-7.40869e-08
4.60509e-10
-7.45213e-08
4.34348e-10
-7.493e-08
4.08707e-10
-7.53135e-08
3.83533e-10
-7.56723e-08
3.58768e-10
-7.60066e-08
3.34352e-10
-7.63168e-08
3.10226e-10
-7.66032e-08
2.86324e-10
-7.68657e-08
2.62581e-10
-7.71047e-08
2.3893e-10
-7.732e-08
2.15301e-10
-7.75116e-08
1.91623e-10
-7.76794e-08
1.67825e-10
-7.78233e-08
1.43834e-10
-7.79428e-08
1.19577e-10
-7.80378e-08
9.49793e-11
-7.81078e-08
6.99666e-11
-7.81522e-08
4.44645e-11
-7.81706e-08
1.83987e-11
-7.81623e-08
-8.30459e-12
-7.81266e-08
-3.57184e-11
-7.80627e-08
-6.39146e-11
-7.79697e-08
-9.29639e-11
-7.78468e-08
-1.22935e-10
-7.76929e-08
-1.53895e-10
-7.7507e-08
-1.85907e-10
-7.7288e-08
-2.19033e-10
-7.70346e-08
-2.53331e-10
-7.67458e-08
-2.88853e-10
-7.64201e-08
-3.2565e-10
-7.60564e-08
-3.63763e-10
-7.56531e-08
-4.03233e-10
-7.52091e-08
-4.44089e-10
-7.47227e-08
-4.86357e-10
-7.41926e-08
-5.30054e-10
-7.36175e-08
-5.75187e-10
-7.29957e-08
-6.21754e-10
-7.2326e-08
-6.69745e-10
-7.16068e-08
-7.19136e-10
-7.08369e-08
-7.69893e-10
-7.0015e-08
-8.2197e-10
-6.91397e-08
-8.75304e-10
-6.82098e-08
-9.2982e-10
-6.72244e-08
-9.85428e-10
-6.61824e-08
-1.04202e-09
-6.50829e-08
-1.09948e-09
-6.39253e-08
-1.15765e-09
-6.27089e-08
-1.21638e-09
-6.14334e-08
-1.27549e-09
-6.00986e-08
-1.33478e-09
-5.87046e-08
-1.39404e-09
-5.72515e-08
-1.45301e-09
-5.57401e-08
-1.51144e-09
-5.41711e-08
-1.56904e-09
-5.25455e-08
-1.62552e-09
-5.0865e-08
-1.68054e-09
-4.91313e-08
-1.73375e-09
-4.73465e-08
-1.7848e-09
-4.55132e-08
-1.83329e-09
-4.36344e-08
-1.87881e-09
-4.17134e-08
-1.92094e-09
-3.97542e-08
-1.95923e-09
-3.77609e-08
-1.99324e-09
-3.57385e-08
-2.02247e-09
-3.3692e-08
-2.04644e-09
-3.16274e-08
-2.06467e-09
-2.95507e-08
-2.07664e-09
-2.74689e-08
-2.08184e-09
-2.53891e-08
-2.07975e-09
-2.33193e-08
-2.06986e-09
-2.12676e-08
-2.05166e-09
-1.9243e-08
-2.02465e-09
-1.72546e-08
-1.98831e-09
-1.53125e-08
-1.94219e-09
-1.34267e-08
-1.8858e-09
-1.16079e-08
-1.81873e-09
-9.86734e-09
-1.74058e-09
-8.21634e-09
-1.651e-09
-6.66662e-09
-1.54971e-09
-5.23011e-09
-1.43651e-09
-3.91879e-09
-1.31132e-09
-2.74457e-09
-1.17421e-09
-1.71907e-09
-1.0255e-09
-8.53262e-10
-8.6581e-10
-1.56975e-10
-6.96288e-10
3.61873e-10
-5.18849e-10
6.98535e-10
-3.36659e-10
8.53502e-10
-1.54965e-10
8.36014e-10
1.74928e-11
6.69887e-10
1.6613e-10
4.03871e-10
2.66008e-10
1.30767e-10
2.73084e-10
1.30753e-10
2.45548e-10
-3.59671e-10
6.34089e-10
-6.33752e-10
9.50096e-10
-5.60611e-10
1.04686e-09
-2.57607e-10
8.28519e-10
1.8537e-10
2.3858e-10
7.06643e-10
-7.51312e-10
1.26493e-09
-2.15019e-09
1.83291e-09
-3.95393e-09
2.39263e-09
-6.14955e-09
2.93235e-09
-8.71819e-09
3.44444e-09
-1.16371e-08
3.92406e-09
-1.48813e-08
4.36828e-09
-1.84243e-08
4.77554e-09
-2.2239e-08
5.14522e-09
-2.62982e-08
5.47736e-09
-3.05752e-08
5.77254e-09
-3.50436e-08
6.03166e-09
-3.96779e-08
6.25592e-09
-4.44536e-08
6.4467e-09
-4.93473e-08
6.60549e-09
-5.43366e-08
6.73392e-09
-5.94004e-08
6.83365e-09
-6.45188e-08
6.90638e-09
-6.96732e-08
6.95382e-09
-7.48461e-08
6.9777e-09
-8.00213e-08
6.97971e-09
-8.5184e-08
6.96151e-09
-9.03203e-08
6.92474e-09
-9.54176e-08
6.87098e-09
-1.00464e-07
6.80177e-09
-1.05451e-07
6.71858e-09
-1.10366e-07
6.62283e-09
-1.15204e-07
6.51588e-09
-1.19955e-07
6.39902e-09
-1.24614e-07
6.27347e-09
-1.29175e-07
6.14039e-09
-1.33633e-07
6.00087e-09
-1.37984e-07
5.85592e-09
-1.42225e-07
5.7065e-09
-1.46353e-07
5.5535e-09
-1.50365e-07
5.39774e-09
-1.54261e-07
5.23998e-09
-1.5804e-07
5.08091e-09
-1.617e-07
4.92118e-09
-1.65241e-07
4.76135e-09
-1.68665e-07
4.60194e-09
-1.71971e-07
4.44344e-09
-1.7516e-07
4.28625e-09
-1.78234e-07
4.13075e-09
-1.81194e-07
3.97724e-09
-1.84042e-07
3.82601e-09
-1.8678e-07
3.6773e-09
-1.89409e-07
3.53129e-09
-1.91932e-07
3.38814e-09
-1.9435e-07
3.24798e-09
-1.96667e-07
3.11088e-09
-1.98884e-07
2.97691e-09
-2.01003e-07
2.84608e-09
-2.03028e-07
2.71841e-09
-2.0496e-07
2.59386e-09
-2.06801e-07
2.47237e-09
-2.08554e-07
2.35389e-09
-2.10221e-07
2.2383e-09
-2.11804e-07
2.1255e-09
-2.13305e-07
2.01535e-09
-2.14726e-07
1.90772e-09
-2.16068e-07
1.80242e-09
-2.17332e-07
1.69928e-09
-2.18522e-07
1.59811e-09
-2.19637e-07
1.49871e-09
-2.20679e-07
1.40086e-09
-2.21649e-07
1.30433e-09
-2.22548e-07
1.20889e-09
-2.23376e-07
1.1143e-09
-2.24133e-07
1.02029e-09
-2.24821e-07
9.26625e-10
-2.25439e-07
8.33025e-10
-2.25986e-07
7.39225e-10
-2.26464e-07
6.44949e-10
-2.2687e-07
5.4992e-10
-2.27204e-07
4.53857e-10
-2.27465e-07
3.56477e-10
-2.27653e-07
2.57496e-10
-2.27765e-07
1.5663e-10
-2.278e-07
5.35969e-11
-2.27757e-07
-5.18848e-11
-2.27632e-07
-1.60092e-10
-2.27425e-07
-2.71299e-10
-2.27132e-07
-3.85772e-10
-2.26751e-07
-5.03771e-10
-2.2628e-07
-6.25548e-10
-2.25714e-07
-7.51344e-10
-2.25052e-07
-8.81388e-10
-2.24289e-07
-1.01589e-09
-2.23423e-07
-1.15506e-09
-2.2245e-07
-1.29907e-09
-2.21365e-07
-1.44808e-09
-2.20166e-07
-1.60224e-09
-2.18849e-07
-1.76164e-09
-2.17409e-07
-1.92638e-09
-2.15842e-07
-2.09651e-09
-2.14146e-07
-2.27205e-09
-2.12314e-07
-2.45299e-09
-2.10345e-07
-2.63927e-09
-2.08233e-07
-2.83078e-09
-2.05976e-07
-3.02739e-09
-2.03569e-07
-3.22891e-09
-2.01009e-07
-3.43508e-09
-1.98293e-07
-3.64561e-09
-1.95418e-07
-3.86013e-09
-1.92382e-07
-4.07823e-09
-1.89182e-07
-4.29941e-09
-1.85817e-07
-4.52313e-09
-1.82284e-07
-4.74875e-09
-1.78584e-07
-4.97558e-09
-1.74716e-07
-5.20285e-09
-1.70681e-07
-5.4297e-09
-1.66478e-07
-5.65521e-09
-1.62111e-07
-5.87837e-09
-1.57582e-07
-6.09809e-09
-1.52895e-07
-6.31319e-09
-1.48053e-07
-6.52244e-09
-1.43062e-07
-6.72451e-09
-1.37929e-07
-6.91798e-09
-1.32661e-07
-7.10139e-09
-1.27266e-07
-7.27318e-09
-1.21756e-07
-7.43174e-09
-1.16139e-07
-7.57538e-09
-1.1043e-07
-7.70238e-09
-1.04642e-07
-7.81095e-09
-9.8789e-08
-7.89925e-09
-9.28882e-08
-7.96542e-09
-8.69573e-08
-8.00759e-09
-8.10153e-08
-8.02383e-09
-7.50828e-08
-8.01225e-09
-6.91817e-08
-7.97096e-09
-6.33353e-08
-7.89807e-09
-5.75682e-08
-7.79176e-09
-5.19062e-08
-7.65026e-09
-4.63765e-08
-7.47187e-09
-4.10073e-08
-7.25502e-09
-3.58278e-08
-6.99828e-09
-3.0868e-08
-6.70037e-09
-2.61587e-08
-6.3603e-09
-2.17311e-08
-5.97734e-09
-1.76164e-08
-5.5512e-09
-1.38456e-08
-5.08211e-09
-1.04487e-08
-4.57105e-09
-7.45423e-09
-4.02001e-09
-4.88764e-09
-3.4324e-09
-2.77023e-09
-2.81369e-09
-1.11671e-09
-2.17237e-09
6.80054e-11
-1.52138e-09
7.93559e-10
-8.80522e-10
1.09101e-09
-2.79951e-10
1.02274e-09
2.3441e-10
6.95351e-10
5.93432e-10
2.73148e-10
6.95332e-10
4.03887e-10
2.45858e-10
-6.05556e-10
5.63573e-10
-9.51481e-10
6.97967e-10
-6.94997e-10
4.75036e-10
-3.46837e-11
-2.24909e-10
8.85303e-10
-1.47775e-09
1.95948e-09
-3.32536e-09
3.11254e-09
-5.78429e-09
4.29185e-09
-8.85256e-09
5.46091e-09
-1.25148e-08
6.59463e-09
-1.67463e-08
7.67595e-09
-2.15158e-08
8.69349e-09
-2.67875e-08
9.63998e-09
-3.2523e-08
1.05111e-08
-3.86823e-08
1.13046e-08
-4.52249e-08
1.20199e-08
-5.211e-08
1.26576e-08
-5.92975e-08
1.32193e-08
-6.67485e-08
1.37069e-08
-7.44248e-08
1.4123e-08
-8.22901e-08
1.44708e-08
-9.03095e-08
1.47533e-08
-9.84498e-08
1.4974e-08
-1.0668e-07
1.51363e-08
-1.1497e-07
1.52439e-08
-1.23292e-07
1.53003e-08
-1.31622e-07
1.53091e-08
-1.39934e-07
1.52738e-08
-1.48207e-07
1.51979e-08
-1.56421e-07
1.50848e-08
-1.64557e-07
1.49378e-08
-1.72599e-07
1.47601e-08
-1.8053e-07
1.45546e-08
-1.88339e-07
1.43244e-08
-1.96012e-07
1.40723e-08
-2.0354e-07
1.38008e-08
-2.10912e-07
1.35126e-08
-2.18121e-07
1.32099e-08
-2.2516e-07
1.2895e-08
-2.32023e-07
1.257e-08
-2.38707e-07
1.22369e-08
-2.45206e-07
1.18973e-08
-2.51519e-07
1.15531e-08
-2.57644e-07
1.12057e-08
-2.6358e-07
1.08566e-08
-2.69325e-07
1.05069e-08
-2.74881e-07
1.01579e-08
-2.80248e-07
9.81061e-09
-2.85428e-07
9.46592e-09
-2.90422e-07
9.12468e-09
-2.95232e-07
8.78758e-09
-2.99862e-07
8.45524e-09
-3.04312e-07
8.1282e-09
-3.08588e-07
7.80688e-09
-3.12692e-07
7.49165e-09
-3.16626e-07
7.18277e-09
-3.20396e-07
6.88044e-09
-3.24004e-07
6.58481e-09
-3.27454e-07
6.29593e-09
-3.30749e-07
6.01381e-09
-3.33894e-07
5.7384e-09
-3.36891e-07
5.4696e-09
-3.39744e-07
5.20726e-09
-3.42457e-07
4.95117e-09
-3.45033e-07
4.70109e-09
-3.47474e-07
4.45674e-09
-3.49784e-07
4.2178e-09
-3.51966e-07
3.98391e-09
-3.54021e-07
3.7547e-09
-3.55953e-07
3.52973e-09
-3.57763e-07
3.30858e-09
-3.59452e-07
3.09077e-09
-3.61024e-07
2.87581e-09
-3.62478e-07
2.66319e-09
-3.63816e-07
2.45238e-09
-3.65039e-07
2.24284e-09
-3.66146e-07
2.034e-09
-3.67138e-07
1.8253e-09
-3.68015e-07
1.61613e-09
-3.68776e-07
1.4059e-09
-3.6942e-07
1.19402e-09
-3.69946e-07
9.79869e-10
-3.70353e-07
7.62833e-10
-3.70638e-07
5.42299e-10
-3.70799e-07
3.17651e-10
-3.70833e-07
8.8275e-11
-3.70739e-07
-1.46436e-10
-3.70512e-07
-3.87082e-10
-3.70149e-07
-6.34254e-10
-3.69646e-07
-8.88527e-10
-3.68999e-07
-1.15046e-09
-3.68204e-07
-1.4206e-09
-3.67256e-07
-1.69946e-09
-3.6615e-07
-1.98753e-09
-3.64881e-07
-2.28526e-09
-3.63443e-07
-2.59309e-09
-3.6183e-07
-2.91139e-09
-3.60038e-07
-3.2405e-09
-3.58059e-07
-3.58071e-09
-3.55889e-07
-3.93225e-09
-3.5352e-07
-4.29529e-09
-3.50946e-07
-4.66993e-09
-3.48162e-07
-5.0562e-09
-3.45161e-07
-5.45404e-09
-3.41937e-07
-5.86332e-09
-3.38484e-07
-6.28381e-09
-3.34796e-07
-6.71518e-09
-3.30868e-07
-7.15698e-09
-3.26695e-07
-7.60867e-09
-3.22271e-07
-8.06956e-09
-3.17592e-07
-8.53886e-09
-3.12655e-07
-9.01563e-09
-3.07455e-07
-9.49879e-09
-3.01991e-07
-9.98712e-09
-2.96261e-07
-1.04792e-08
-2.90263e-07
-1.09736e-08
-2.83997e-07
-1.14686e-08
-2.77465e-07
-1.19622e-08
-2.70667e-07
-1.24525e-08
-2.63608e-07
-1.29373e-08
-2.56292e-07
-1.34142e-08
-2.48725e-07
-1.38806e-08
-2.40913e-07
-1.43339e-08
-2.32867e-07
-1.47712e-08
-2.24595e-07
-1.51893e-08
-2.16111e-07
-1.55852e-08
-2.07429e-07
-1.59554e-08
-1.98565e-07
-1.62965e-08
-1.89535e-07
-1.66048e-08
-1.80361e-07
-1.68767e-08
-1.71064e-07
-1.71082e-08
-1.61667e-07
-1.72955e-08
-1.52198e-07
-1.74346e-08
-1.42684e-07
-1.75214e-08
-1.33156e-07
-1.7552e-08
-1.23646e-07
-1.75222e-08
-1.14189e-07
-1.74281e-08
-1.04821e-07
-1.72658e-08
-9.55815e-08
-1.70314e-08
-8.65104e-08
-1.67214e-08
-7.765e-08
-1.63322e-08
-6.90442e-08
-1.58608e-08
-6.07381e-08
-1.53044e-08
-5.27779e-08
-1.46606e-08
-4.52105e-08
-1.39277e-08
-3.80832e-08
-1.31047e-08
-3.14427e-08
-1.21916e-08
-2.5335e-08
-1.11898e-08
-1.98039e-08
-1.01022e-08
-1.48896e-08
-8.93422e-09
-1.06278e-08
-7.69425e-09
-7.04624e-09
-6.39523e-09
-4.16242e-09
-5.05618e-09
-1.97887e-09
-3.70494e-09
-4.77531e-10
-2.38186e-09
3.87793e-10
-1.14528e-09
7.01245e-10
-7.90596e-11
5.96108e-10
6.98551e-10
2.66925e-10
1.02454e-09
6.7081e-10
1.638e-10
-7.69367e-10
2.64865e-10
-1.05253e-09
4.44126e-11
-4.74552e-10
-6.77923e-10
6.87638e-10
-2.0289e-09
2.23627e-09
-4.09174e-09
4.02232e-09
-6.91456e-09
5.93536e-09
-1.05179e-08
7.89516e-09
-1.4901e-08
9.84401e-09
-2.0047e-08
1.17407e-08
-2.59273e-08
1.35563e-08
-3.25045e-08
1.52706e-08
-3.9735e-08
1.68705e-08
-4.75712e-08
1.83473e-08
-5.59631e-08
1.96964e-08
-6.48591e-08
2.09159e-08
-7.42073e-08
2.20059e-08
-8.39562e-08
2.29682e-08
-9.40551e-08
2.38057e-08
-1.04455e-07
2.45225e-08
-1.15107e-07
2.51232e-08
-1.25966e-07
2.56127e-08
-1.36989e-07
2.59968e-08
-1.48134e-07
2.6281e-08
-1.59361e-07
2.64713e-08
-1.70635e-07
2.65737e-08
-1.8192e-07
2.65941e-08
-1.93184e-07
2.65384e-08
-2.04399e-07
2.64126e-08
-2.15536e-07
2.62224e-08
-2.26572e-07
2.59733e-08
-2.37483e-07
2.56708e-08
-2.48248e-07
2.53201e-08
-2.5885e-07
2.49262e-08
-2.69271e-07
2.44939e-08
-2.79498e-07
2.40277e-08
-2.89518e-07
2.35321e-08
-2.99319e-07
2.3011e-08
-3.08892e-07
2.24684e-08
-3.1823e-07
2.19078e-08
-3.27326e-07
2.13326e-08
-3.36175e-07
2.07459e-08
-3.44772e-07
2.01506e-08
-3.53116e-07
1.95494e-08
-3.61204e-07
1.89447e-08
-3.69036e-07
1.83387e-08
-3.76611e-07
1.77335e-08
-3.83932e-07
1.71308e-08
-3.90998e-07
1.65323e-08
-3.97813e-07
1.59394e-08
-4.04378e-07
1.53534e-08
-4.10698e-07
1.47753e-08
-4.16776e-07
1.4206e-08
-4.22616e-07
1.36464e-08
-4.28221e-07
1.30971e-08
-4.33597e-07
1.25585e-08
-4.38748e-07
1.20311e-08
-4.43678e-07
1.15151e-08
-4.48393e-07
1.10105e-08
-4.52896e-07
1.05175e-08
-4.57194e-07
1.00359e-08
-4.6129e-07
9.56565e-09
-4.65189e-07
9.1064e-09
-4.68896e-07
8.65786e-09
-4.72414e-07
8.21961e-09
-4.75749e-07
7.79116e-09
-4.78903e-07
7.37198e-09
-4.8188e-07
6.96145e-09
-4.84684e-07
6.55892e-09
-4.87318e-07
6.16368e-09
-4.89785e-07
5.77496e-09
-4.92086e-07
5.39196e-09
-4.94224e-07
5.01384e-09
-4.96201e-07
4.63972e-09
-4.98017e-07
4.26869e-09
-4.99674e-07
3.89981e-09
-5.01172e-07
3.53211e-09
-5.02511e-07
3.1646e-09
-5.03691e-07
2.79626e-09
-5.04712e-07
2.42608e-09
-5.05571e-07
2.05301e-09
-5.06267e-07
1.67601e-09
-5.06798e-07
1.29401e-09
-5.07162e-07
9.05964e-10
-5.07355e-07
5.10808e-10
-5.07374e-07
1.07491e-10
-5.07215e-07
-3.05029e-10
-5.06875e-07
-7.27782e-10
-5.06347e-07
-1.16178e-09
-5.05628e-07
-1.608e-09
-5.04711e-07
-2.06742e-09
-5.0359e-07
-2.54094e-09
-5.0226e-07
-3.02945e-09
-5.00714e-07
-3.53378e-09
-4.98945e-07
-4.05472e-09
-4.96945e-07
-4.59296e-09
-4.94707e-07
-5.14917e-09
-4.92224e-07
-5.7239e-09
-4.89487e-07
-6.31762e-09
-4.86488e-07
-6.93073e-09
-4.8322e-07
-7.56348e-09
-4.79674e-07
-8.21604e-09
-4.75842e-07
-8.88843e-09
-4.71715e-07
-9.58054e-09
-4.67286e-07
-1.02921e-08
-4.62548e-07
-1.10227e-08
-4.57491e-07
-1.17717e-08
-4.5211e-07
-1.25384e-08
-4.46396e-07
-1.33218e-08
-4.40345e-07
-1.41206e-08
-4.33951e-07
-1.49335e-08
-4.27207e-07
-1.57589e-08
-4.20112e-07
-1.65948e-08
-4.1266e-07
-1.74391e-08
-4.04849e-07
-1.82895e-08
-3.9668e-07
-1.91432e-08
-3.88151e-07
-1.99973e-08
-3.79265e-07
-2.08487e-08
-3.70023e-07
-2.16937e-08
-3.60432e-07
-2.25287e-08
-3.50497e-07
-2.33494e-08
-3.40226e-07
-2.41515e-08
-3.29629e-07
-2.49304e-08
-3.18719e-07
-2.56811e-08
-3.0751e-07
-2.63984e-08
-2.96019e-07
-2.70767e-08
-2.84264e-07
-2.77103e-08
-2.72267e-07
-2.82934e-08
-2.60052e-07
-2.88195e-08
-2.47646e-07
-2.92826e-08
-2.35079e-07
-2.96758e-08
-2.22382e-07
-2.99927e-08
-2.0959e-07
-3.02265e-08
-1.96741e-07
-3.03703e-08
-1.83875e-07
-3.04174e-08
-1.71037e-07
-3.03609e-08
-1.58271e-07
-3.01942e-08
-1.45626e-07
-2.99107e-08
-1.33153e-07
-2.95043e-08
-1.20905e-07
-2.89689e-08
-1.08939e-07
-2.82989e-08
-9.731e-08
-2.74895e-08
-8.60781e-08
-2.65363e-08
-7.53027e-08
-2.54359e-08
-6.50444e-08
-2.4186e-08
-5.53634e-08
-2.27857e-08
-4.63192e-08
-2.12358e-08
-3.79695e-08
-1.95396e-08
-3.03684e-08
-1.77033e-08
-2.35654e-08
-1.57372e-08
-1.76028e-08
-1.36568e-08
-1.25131e-08
-1.14849e-08
-8.31532e-09
-9.25397e-09
-5.0105e-09
-7.00975e-09
-2.57604e-09
-4.8163e-09
-9.58668e-10
-2.76264e-09
-6.5978e-11
-9.71758e-10
2.42984e-10
3.89578e-10
1.69017e-10
1.09851e-09
8.39833e-10
3.77847e-11
-8.07147e-10
-1.74088e-10
-8.40663e-10
-8.70446e-10
2.21795e-10
-2.22137e-09
2.03855e-09
-4.34864e-09
4.36355e-09
-7.33381e-09
7.0075e-09
-1.12248e-08
9.82639e-09
-1.60422e-08
1.27126e-08
-2.17846e-08
1.55863e-08
-2.8433e-08
1.83891e-08
-3.59554e-08
2.10786e-08
-4.43094e-08
2.36246e-08
-5.34454e-08
2.60065e-08
-6.33086e-08
2.82105e-08
-7.38406e-08
3.02285e-08
-8.49813e-08
3.20566e-08
-9.66694e-08
3.36939e-08
-1.08844e-07
3.51425e-08
-1.21444e-07
3.64058e-08
-1.3441e-07
3.74893e-08
-1.47686e-07
3.83991e-08
-1.61216e-07
3.91427e-08
-1.74947e-07
3.97277e-08
-1.88829e-07
4.01624e-08
-2.02813e-07
4.04556e-08
-2.16855e-07
4.06158e-08
-2.30913e-07
4.06519e-08
-2.44947e-07
4.05728e-08
-2.58922e-07
4.03871e-08
-2.72803e-07
4.01034e-08
-2.86559e-07
3.973e-08
-3.00164e-07
3.9275e-08
-3.1359e-07
3.87464e-08
-3.26816e-07
3.81517e-08
-3.3982e-07
3.7498e-08
-3.52584e-07
3.67923e-08
-3.65093e-07
3.60412e-08
-3.77333e-07
3.52508e-08
-3.89292e-07
3.4427e-08
-4.00959e-07
3.35752e-08
-4.12327e-07
3.27006e-08
-4.23389e-07
3.1808e-08
-4.3414e-07
3.09017e-08
-4.44577e-07
2.99857e-08
-4.54696e-07
2.90639e-08
-4.64497e-07
2.81396e-08
-4.73979e-07
2.7216e-08
-4.83144e-07
2.62957e-08
-4.91993e-07
2.53814e-08
-5.00529e-07
2.44751e-08
-5.08754e-07
2.35788e-08
-5.16673e-07
2.26942e-08
-5.2429e-07
2.18228e-08
-5.31609e-07
2.09656e-08
-5.38636e-07
2.01238e-08
-5.45376e-07
1.92981e-08
-5.51833e-07
1.84891e-08
-5.58015e-07
1.7697e-08
-5.63927e-07
1.69223e-08
-5.69575e-07
1.61649e-08
-5.74963e-07
1.54247e-08
-5.80099e-07
1.47015e-08
-5.84988e-07
1.39949e-08
-5.89634e-07
1.33045e-08
-5.94044e-07
1.26295e-08
-5.98222e-07
1.19694e-08
-6.02174e-07
1.13232e-08
-6.05902e-07
1.06901e-08
-6.09412e-07
1.0069e-08
-6.12708e-07
9.45896e-09
-6.15791e-07
8.85875e-09
-6.18667e-07
8.26716e-09
-6.21336e-07
7.68292e-09
-6.23801e-07
7.10471e-09
-6.26063e-07
6.53114e-09
-6.28124e-07
5.96079e-09
-6.29984e-07
5.39218e-09
-6.31643e-07
4.82383e-09
-6.33101e-07
4.2542e-09
-6.34357e-07
3.68173e-09
-6.35409e-07
3.10484e-09
-6.36255e-07
2.52196e-09
-6.36892e-07
1.93149e-09
-6.37318e-07
1.33181e-09
-6.37529e-07
7.21336e-10
-6.3752e-07
9.84726e-11
-6.37286e-07
-5.38355e-10
-6.36823e-07
-1.1907e-09
-6.36125e-07
-1.86008e-09
-6.35185e-07
-2.54799e-09
-6.33997e-07
-3.25587e-09
-6.32552e-07
-3.9851e-09
-6.30845e-07
-4.73701e-09
-6.28866e-07
-5.51283e-09
-6.26607e-07
-6.31374e-09
-6.24059e-07
-7.14079e-09
-6.21213e-07
-7.99495e-09
-6.1806e-07
-8.87704e-09
-6.1459e-07
-9.78777e-09
-6.10793e-07
-1.07277e-08
-6.06659e-07
-1.16972e-08
-6.02179e-07
-1.26964e-08
-5.97342e-07
-1.37255e-08
-5.92138e-07
-1.47841e-08
-5.86558e-07
-1.58719e-08
-5.80593e-07
-1.69882e-08
-5.74233e-07
-1.8132e-08
-5.67469e-07
-1.93022e-08
-5.60294e-07
-2.04971e-08
-5.52699e-07
-2.17151e-08
-5.44679e-07
-2.29538e-08
-5.36227e-07
-2.42108e-08
-5.27338e-07
-2.54832e-08
-5.1801e-07
-2.67678e-08
-5.08238e-07
-2.80608e-08
-4.98023e-07
-2.93583e-08
-4.87365e-07
-3.06557e-08
-4.76265e-07
-3.19482e-08
-4.64729e-07
-3.32304e-08
-4.52761e-07
-3.44965e-08
-4.4037e-07
-3.57404e-08
-4.27566e-07
-3.69553e-08
-4.14362e-07
-3.81342e-08
-4.00774e-07
-3.92697e-08
-3.86818e-07
-4.03538e-08
-3.72517e-07
-4.13783e-08
-3.57892e-07
-4.23345e-08
-3.42972e-07
-4.32134e-08
-3.27786e-07
-4.40057e-08
-3.12367e-07
-4.47018e-08
-2.96751e-07
-4.5292e-08
-2.80977e-07
-4.57663e-08
-2.65089e-07
-4.61146e-08
-2.49133e-07
-4.63267e-08
-2.33158e-07
-4.63926e-08
-2.17216e-07
-4.63022e-08
-2.01365e-07
-4.60457e-08
-1.85662e-07
-4.56135e-08
-1.7017e-07
-4.49965e-08
-1.54953e-07
-4.4186e-08
-1.40077e-07
-4.31742e-08
-1.25613e-07
-4.19542e-08
-1.11629e-07
-4.05201e-08
-9.81975e-08
-3.88673e-08
-8.53901e-08
-3.69934e-08
-7.32779e-08
-3.48978e-08
-6.19307e-08
-3.2583e-08
-5.14153e-08
-3.00549e-08
-4.17946e-08
-2.73241e-08
-3.31249e-08
-2.44069e-08
-2.54541e-08
-2.13277e-08
-1.88184e-08
-1.81205e-08
-1.32393e-08
-1.48332e-08
-8.71831e-09
-1.15307e-08
-5.2328e-09
-8.3018e-09
-2.72951e-09
-5.26593e-09
-1.11794e-09
-2.58332e-09
-2.63084e-10
-4.65273e-10
2.3275e-11
8.12158e-10
8.63111e-10
-1.10583e-10
-6.96573e-10
-6.93968e-10
-2.5729e-10
-1.94601e-09
1.47383e-09
-4.01453e-09
4.10708e-09
-7.00735e-09
7.35638e-09
-1.09972e-08
1.09974e-08
-1.60267e-08
1.48558e-08
-2.21123e-08
1.87982e-08
-2.92495e-08
2.27236e-08
-3.74162e-08
2.65558e-08
-4.65764e-08
3.02388e-08
-5.66833e-08
3.37315e-08
-6.76818e-08
3.7005e-08
-7.95111e-08
4.00398e-08
-9.2106e-08
4.28234e-08
-1.05399e-07
4.53495e-08
-1.19321e-07
4.76159e-08
-1.33803e-07
4.96242e-08
-1.48776e-07
5.13787e-08
-1.64172e-07
5.28857e-08
-1.79926e-07
5.41534e-08
-1.95975e-07
5.51912e-08
-2.12257e-07
5.60094e-08
-2.28713e-07
5.66191e-08
-2.4529e-07
5.70319e-08
-2.61933e-07
5.72596e-08
-2.78596e-07
5.73142e-08
-2.95231e-07
5.72077e-08
-3.11796e-07
5.69521e-08
-3.28252e-07
5.65592e-08
-3.44562e-07
5.60404e-08
-3.60694e-07
5.5407e-08
-3.76618e-07
5.467e-08
-3.92306e-07
5.38397e-08
-4.07734e-07
5.29263e-08
-4.22881e-07
5.19393e-08
-4.37727e-07
5.08879e-08
-4.52257e-07
4.97807e-08
-4.66456e-07
4.8626e-08
-4.80313e-07
4.74314e-08
-4.93816e-07
4.6204e-08
-5.06959e-07
4.49506e-08
-5.19734e-07
4.36773e-08
-5.32138e-07
4.23899e-08
-5.44168e-07
4.10936e-08
-5.55822e-07
3.97931e-08
-5.67098e-07
3.8493e-08
-5.78e-07
3.7197e-08
-5.88527e-07
3.59087e-08
-5.98683e-07
3.46312e-08
-6.08472e-07
3.33673e-08
-6.17897e-07
3.21193e-08
-6.26963e-07
3.08893e-08
-6.35677e-07
2.9679e-08
-6.44042e-07
2.84898e-08
-6.52067e-07
2.73228e-08
-6.59757e-07
2.61788e-08
-6.67118e-07
2.50585e-08
-6.74158e-07
2.3962e-08
-6.80883e-07
2.28897e-08
-6.87299e-07
2.18413e-08
-6.93414e-07
2.08165e-08
-6.99234e-07
1.98147e-08
-7.04765e-07
1.88355e-08
-7.10013e-07
1.78778e-08
-7.14985e-07
1.69407e-08
-7.19685e-07
1.60231e-08
-7.24118e-07
1.51236e-08
-7.2829e-07
1.4241e-08
-7.32205e-07
1.33737e-08
-7.35866e-07
1.25201e-08
-7.39278e-07
1.16785e-08
-7.42442e-07
1.08471e-08
-7.45361e-07
1.00241e-08
-7.48038e-07
9.20755e-09
-7.50472e-07
8.39546e-09
-7.52666e-07
7.58576e-09
-7.54618e-07
6.77638e-09
-7.56329e-07
5.96517e-09
-7.57798e-07
5.14995e-09
-7.59021e-07
4.32853e-09
-7.59998e-07
3.4987e-09
-7.60725e-07
2.65821e-09
-7.61198e-07
1.80483e-09
-7.61413e-07
9.36335e-10
-7.61365e-07
5.05063e-11
-7.61048e-07
-8.54852e-10
-7.60457e-07
-1.7819e-09
-7.59584e-07
-2.73276e-09
-7.58423e-07
-3.7095e-09
-7.56965e-07
-4.71412e-09
-7.55201e-07
-5.74853e-09
-7.53124e-07
-6.81458e-09
-7.50723e-07
-7.91398e-09
-7.47988e-07
-9.04833e-09
-7.4491e-07
-1.02191e-08
-7.41477e-07
-1.14276e-08
-7.37679e-07
-1.2675e-08
-7.33505e-07
-1.39622e-08
-7.28942e-07
-1.529e-08
-7.23981e-07
-1.66588e-08
-7.18608e-07
-1.8069e-08
-7.12813e-07
-1.95204e-08
-7.06584e-07
-2.10129e-08
-6.99911e-07
-2.25457e-08
-6.92781e-07
-2.41178e-08
-6.85185e-07
-2.5728e-08
-6.77113e-07
-2.73744e-08
-6.68555e-07
-2.9055e-08
-6.59503e-07
-3.0767e-08
-6.49949e-07
-3.25075e-08
-6.39887e-07
-3.42729e-08
-6.29311e-07
-3.60591e-08
-6.18218e-07
-3.78615e-08
-6.06603e-07
-3.9675e-08
-5.94468e-07
-4.14939e-08
-5.81812e-07
-4.33119e-08
-5.68638e-07
-4.51221e-08
-5.54951e-07
-4.69171e-08
-5.40759e-07
-4.86888e-08
-5.26071e-07
-5.04284e-08
-5.10899e-07
-5.21268e-08
-4.95259e-07
-5.37741e-08
-4.79169e-07
-5.53598e-08
-4.6265e-07
-5.6873e-08
-4.45726e-07
-5.8302e-08
-4.28426e-07
-5.9635e-08
-4.1078e-07
-6.08593e-08
-3.92823e-07
-6.19621e-08
-3.74595e-07
-6.29302e-08
-3.56137e-07
-6.37501e-08
-3.37495e-07
-6.44079e-08
-3.1872e-07
-6.48897e-08
-2.99865e-07
-6.51817e-08
-2.80988e-07
-6.52699e-08
-2.6215e-07
-6.51406e-08
-2.43415e-07
-6.47804e-08
-2.24852e-07
-6.41765e-08
-2.06532e-07
-6.33164e-08
-1.88529e-07
-6.21888e-08
-1.7092e-07
-6.07833e-08
-1.53784e-07
-5.90907e-08
-1.372e-07
-5.71037e-08
-1.2125e-07
-5.48171e-08
-1.06016e-07
-5.2228e-08
-9.15766e-08
-4.9337e-08
-7.80111e-08
-4.61485e-08
-6.53942e-08
-4.26718e-08
-5.37955e-08
-3.89227e-08
-4.32776e-08
-3.49248e-08
-3.38935e-08
-3.07118e-08
-2.56837e-08
-2.63303e-08
-1.86731e-08
-2.18438e-08
-1.28667e-08
-1.7337e-08
-8.24616e-09
-1.29224e-08
-4.76409e-09
-8.748e-09
-2.3399e-09
-5.0075e-09
-8.54617e-10
-1.95055e-09
-1.45835e-10
1.03376e-10
7.17276e-10
-2.68848e-10
-4.27732e-10
-1.25598e-09
7.29844e-10
-3.11212e-09
3.32998e-09
-5.95556e-09
6.95054e-09
-9.87376e-09
1.12746e-08
-1.49253e-08
1.6049e-08
-2.11428e-08
2.10733e-08
-2.85356e-08
2.6191e-08
-3.70934e-08
3.12814e-08
-4.67891e-08
3.62516e-08
-5.75822e-08
4.10319e-08
-6.9421e-08
4.55703e-08
-8.22453e-08
4.98294e-08
-9.59887e-08
5.37831e-08
-1.1058e-07
5.74148e-08
-1.25946e-07
6.07149e-08
-1.42009e-07
6.36797e-08
-1.58695e-07
6.63102e-08
-1.75928e-07
6.8611e-08
-1.93631e-07
7.05896e-08
-2.11734e-07
7.22559e-08
-2.30164e-07
7.36216e-08
-2.48855e-07
7.46997e-08
-2.6774e-07
7.55041e-08
-2.86757e-07
7.60497e-08
-3.05849e-07
7.63515e-08
-3.2496e-07
7.64251e-08
-3.44038e-07
7.6286e-08
-3.63036e-07
7.59498e-08
-3.81909e-07
7.54317e-08
-4.00615e-07
7.47469e-08
-4.19118e-07
7.391e-08
-4.37383e-07
7.29353e-08
-4.5538e-07
7.18365e-08
-4.73081e-07
7.0627e-08
-4.90461e-07
6.93193e-08
-5.07499e-07
6.79256e-08
-5.24175e-07
6.64572e-08
-5.40474e-07
6.49249e-08
-5.56382e-07
6.3339e-08
-5.71886e-07
6.17089e-08
-5.86979e-07
6.00434e-08
-6.01653e-07
5.83509e-08
-6.15902e-07
5.66388e-08
-6.29723e-07
5.49143e-08
-6.43113e-07
5.31836e-08
-6.56073e-07
5.14525e-08
-6.68602e-07
4.97264e-08
-6.80703e-07
4.80098e-08
-6.92379e-07
4.6307e-08
-7.03633e-07
4.46216e-08
-7.14471e-07
4.29569e-08
-7.24897e-07
4.13155e-08
-7.34918e-07
3.96998e-08
-7.4454e-07
3.81116e-08
-7.53769e-07
3.65525e-08
-7.62614e-07
3.50236e-08
-7.71081e-07
3.35256e-08
-7.79178e-07
3.20591e-08
-7.86913e-07
3.06242e-08
-7.94292e-07
2.92208e-08
-8.01324e-07
2.78484e-08
-8.08016e-07
2.65065e-08
-8.14375e-07
2.51941e-08
-8.20407e-07
2.39102e-08
-8.2612e-07
2.26534e-08
-8.31519e-07
2.14222e-08
-8.36611e-07
2.02151e-08
-8.414e-07
1.90301e-08
-8.45891e-07
1.78652e-08
-8.5009e-07
1.67185e-08
-8.53999e-07
1.55876e-08
-8.57622e-07
1.44701e-08
-8.60961e-07
1.33637e-08
-8.64019e-07
1.22658e-08
-8.66798e-07
1.11737e-08
-8.69297e-07
1.00847e-08
-8.71516e-07
8.99615e-09
-8.73456e-07
7.90511e-09
-8.75115e-07
6.80875e-09
-8.76491e-07
5.70416e-09
-8.77581e-07
4.5884e-09
-8.78381e-07
3.45853e-09
-8.78888e-07
2.31161e-09
-8.79096e-07
1.14468e-09
-8.79e-07
-4.51723e-11
-8.78594e-07
-1.26084e-09
-8.77871e-07
-2.50518e-09
-8.76823e-07
-3.78097e-09
-8.75441e-07
-5.09094e-09
-8.73718e-07
-6.43771e-09
-8.71643e-07
-7.8238e-09
-8.69205e-07
-9.25162e-09
-8.66396e-07
-1.07234e-08
-8.63203e-07
-1.22413e-08
-8.59615e-07
-1.38072e-08
-8.5562e-07
-1.54227e-08
-8.51205e-07
-1.70895e-08
-8.46359e-07
-1.88086e-08
-8.41068e-07
-2.0581e-08
-8.35319e-07
-2.24074e-08
-8.291e-07
-2.42881e-08
-8.22398e-07
-2.6223e-08
-8.15199e-07
-2.82117e-08
-8.07491e-07
-3.02532e-08
-7.99263e-07
-3.23462e-08
-7.90502e-07
-3.44889e-08
-7.81198e-07
-3.66789e-08
-7.71339e-07
-3.89134e-08
-7.60917e-07
-4.11888e-08
-7.49924e-07
-4.35011e-08
-7.38351e-07
-4.58455e-08
-7.26193e-07
-4.82167e-08
-7.13447e-07
-5.06085e-08
-7.00108e-07
-5.3014e-08
-6.86176e-07
-5.54258e-08
-6.71652e-07
-5.78355e-08
-6.5654e-07
-6.0234e-08
-6.40846e-07
-6.26114e-08
-6.24578e-07
-6.4957e-08
-6.07747e-07
-6.72595e-08
-5.90367e-07
-6.95065e-08
-5.72456e-07
-7.1685e-08
-5.54035e-07
-7.37813e-08
-5.35127e-07
-7.5781e-08
-5.1576e-07
-7.76687e-08
-4.95966e-07
-7.94288e-08
-4.7578e-07
-8.10448e-08
-4.55243e-07
-8.24999e-08
-4.34396e-07
-8.37766e-08
-4.13289e-07
-8.48573e-08
-3.91973e-07
-8.57239e-08
-3.70504e-07
-8.63584e-08
-3.48943e-07
-8.67426e-08
-3.27355e-07
-8.68584e-08
-3.05807e-07
-8.66882e-08
-2.84373e-07
-8.62146e-08
-2.63128e-07
-8.54211e-08
-2.42153e-07
-8.4292e-08
-2.21529e-07
-8.28127e-08
-2.01342e-07
-8.09703e-08
-1.81679e-07
-7.87536e-08
-1.62629e-07
-7.61537e-08
-1.44281e-07
-7.31646e-08
-1.26726e-07
-6.97837e-08
-1.1005e-07
-6.60127e-08
-9.43398e-08
-6.18586e-08
-7.96771e-08
-5.73346e-08
-6.61377e-08
-5.24621e-08
-5.37902e-08
-4.72723e-08
-4.26928e-08
-4.18091e-08
-3.28914e-08
-3.61318e-08
-2.44161e-08
-3.03191e-08
-1.72783e-08
-2.44748e-08
-1.14673e-08
-1.87334e-08
-6.94694e-09
-1.32684e-08
-3.65243e-09
-8.302e-09
-1.48781e-09
-4.11517e-09
-3.24335e-10
-1.0601e-09
3.92941e-10
-4.29743e-10
2.01479e-12
-1.83527e-09
2.13537e-09
-4.32117e-09
5.81589e-09
-7.97257e-09
1.06019e-08
-1.28525e-08
1.61545e-08
-1.90015e-08
2.2198e-08
-2.64387e-08
2.85104e-08
-3.51633e-08
3.49157e-08
-4.51571e-08
4.12751e-08
-5.63864e-08
4.74809e-08
-6.88047e-08
5.34502e-08
-8.23549e-08
5.91205e-08
-9.69716e-08
6.44461e-08
-1.12583e-07
6.93944e-08
-1.29112e-07
7.39441e-08
-1.4648e-07
7.80824e-08
-1.64604e-07
8.18038e-08
-1.83402e-07
8.51085e-08
-2.02792e-07
8.80014e-08
-2.22694e-07
9.04912e-08
-2.43028e-07
9.25895e-08
-2.63716e-07
9.43101e-08
-2.84685e-07
9.56689e-08
-3.05864e-07
9.66828e-08
-3.27184e-07
9.73701e-08
-3.48582e-07
9.77494e-08
-3.69997e-07
9.78399e-08
-3.91372e-07
9.7661e-08
-4.12654e-07
9.7232e-08
-4.33795e-07
9.65722e-08
-4.54748e-07
9.57004e-08
-4.75473e-07
9.46351e-08
-4.95933e-07
9.33943e-08
-5.16091e-07
9.19953e-08
-5.35919e-07
9.04548e-08
-5.55389e-07
8.87889e-08
-5.74476e-07
8.70128e-08
-5.9316e-07
8.5141e-08
-6.11422e-07
8.31872e-08
-6.29247e-07
8.11643e-08
-6.46623e-07
7.90844e-08
-6.63538e-07
7.69587e-08
-6.79985e-07
7.47978e-08
-6.95957e-07
7.26113e-08
-7.11451e-07
7.04081e-08
-7.26464e-07
6.81963e-08
-7.40995e-07
6.59835e-08