/*--------------------------------*- C++ -*----------------------------------*\
  =========                 |
  \\      /  F ield         | OpenFOAM: The Open Source CFD Toolbox
   \\    /   O peration     | Website:  https://openfoam.org
    \\  /    A nd           | Version:  7
     \\/     M anipulation  |
\*---------------------------------------------------------------------------*/
FoamFile
{
    version     2.0;
    format      ascii;
    class       volScalarField;
    location    "0.475";
    object      p;
}
// * * * * * * * * * * * * * * * * * * * * * * * * * * * * * * * * * * * * * //

dimensions      [0 2 -2 0 0 0 0];

internalField   nonuniform List<scalar> 
51200
(
-5.40279e-09
1.87708e-06
4.71655e-06
7.48011e-06
9.7583e-06
1.17083e-05
1.34036e-05
1.48933e-05
1.61999e-05
1.73432e-05
1.83347e-05
1.91822e-05
1.98894e-05
2.04624e-05
2.09061e-05
2.12282e-05
2.14318e-05
2.15185e-05
2.14931e-05
2.13597e-05
2.1123e-05
2.07868e-05
2.03539e-05
1.9828e-05
1.92114e-05
1.85081e-05
1.77207e-05
1.68498e-05
1.58999e-05
1.48753e-05
1.37779e-05
1.26118e-05
1.13802e-05
1.00849e-05
8.72991e-06
7.31912e-06
5.85549e-06
4.34203e-06
2.77995e-06
1.17074e-06
-4.81395e-07
-2.17374e-06
-3.90615e-06
-5.67687e-06
-7.48362e-06
-9.32577e-06
-1.12018e-05
-1.31091e-05
-1.50462e-05
-1.70108e-05
-1.90013e-05
-2.10169e-05
-2.30557e-05
-2.51161e-05
-2.71975e-05
-2.9299e-05
-3.14197e-05
-3.35577e-05
-3.57119e-05
-3.78834e-05
-4.00725e-05
-4.22777e-05
-4.44969e-05
-4.67294e-05
-4.89743e-05
-5.12303e-05
-5.34964e-05
-5.57728e-05
-5.80592e-05
-6.03559e-05
-6.26637e-05
-6.49818e-05
-6.7308e-05
-6.96418e-05
-7.19838e-05
-7.43333e-05
-7.66887e-05
-7.90497e-05
-8.14167e-05
-8.37901e-05
-8.61697e-05
-8.85543e-05
-9.09428e-05
-9.33348e-05
-9.57302e-05
-9.81292e-05
-0.000100532
-0.000102936
-0.000105341
-0.000107747
-0.000110154
-0.00011256
-0.000114966
-0.000117369
-0.000119768
-0.000122163
-0.000124554
-0.00012694
-0.000129321
-0.000131694
-0.000134058
-0.000136411
-0.000138753
-0.000141081
-0.000143395
-0.000145692
-0.000147973
-0.000150237
-0.000152482
-0.000154705
-0.000156905
-0.000159078
-0.000161226
-0.000163345
-0.000165434
-0.000167491
-0.000169514
-0.000171501
-0.000173449
-0.000175356
-0.000177221
-0.000179041
-0.000180814
-0.000182536
-0.000184206
-0.000185824
-0.000187386
-0.000188892
-0.000190337
-0.000191717
-0.000193029
-0.000194272
-0.000195444
-0.000196545
-0.000197572
-0.000198524
-0.000199397
-0.000200189
-0.000200898
-0.000201522
-0.000202062
-0.000202516
-0.000202883
-0.000203165
-0.00020336
-0.00020347
-0.000203496
-0.000203441
-0.000203307
-0.000203098
-0.000202823
-0.00020249
-0.000202108
-0.000201693
-0.000201265
-0.000200845
-0.00020046
-0.000200143
-0.000199939
-0.000199878
1.7518e-06
3.55252e-06
5.8261e-06
8.04474e-06
1.00089e-05
1.17351e-05
1.32595e-05
1.46113e-05
1.58074e-05
1.68587e-05
1.77742e-05
1.85587e-05
1.92168e-05
1.97479e-05
2.01586e-05
2.04542e-05
2.06373e-05
2.07127e-05
2.06811e-05
2.05456e-05
2.03098e-05
1.99763e-05
1.95502e-05
1.90339e-05
1.84303e-05
1.77425e-05
1.6972e-05
1.61208e-05
1.51928e-05
1.41901e-05
1.31165e-05
1.19759e-05
1.07702e-05
9.50148e-06
8.1725e-06
6.78606e-06
5.34689e-06
3.85814e-06
2.32055e-06
7.36932e-07
-8.89789e-07
-2.55866e-06
-4.26846e-06
-6.01662e-06
-7.80161e-06
-9.62321e-06
-1.14795e-05
-1.33679e-05
-1.52864e-05
-1.72332e-05
-1.92071e-05
-2.12072e-05
-2.32313e-05
-2.52777e-05
-2.73459e-05
-2.94363e-05
-3.15471e-05
-3.36756e-05
-3.58216e-05
-3.79859e-05
-4.01672e-05
-4.23642e-05
-4.4577e-05
-4.68048e-05
-4.90462e-05
-5.12999e-05
-5.35647e-05
-5.58394e-05
-5.81239e-05
-6.04192e-05
-6.27253e-05
-6.50413e-05
-6.73664e-05
-6.97008e-05
-7.20442e-05
-7.43945e-05
-7.67502e-05
-7.91115e-05
-8.14788e-05
-8.38522e-05
-8.62315e-05
-8.8616e-05
-9.10046e-05
-9.3396e-05
-9.57902e-05
-9.81874e-05
-0.000100587
-0.000102989
-0.00010539
-0.000107793
-0.000110196
-0.000112598
-0.000114997
-0.000117392
-0.000119784
-0.000122171
-0.000124553
-0.000126928
-0.000129297
-0.000131658
-0.00013401
-0.000136349
-0.000138676
-0.000140988
-0.000143284
-0.000145563
-0.000147825
-0.000150069
-0.000152293
-0.000154495
-0.000156671
-0.000158821
-0.000160944
-0.000163039
-0.000165102
-0.000167133
-0.000169129
-0.000171087
-0.000173007
-0.000174885
-0.000176722
-0.000178513
-0.000180257
-0.00018195
-0.000183592
-0.000185182
-0.000186717
-0.000188195
-0.000189613
-0.000190967
-0.000192255
-0.000193476
-0.000194627
-0.000195709
-0.000196719
-0.000197655
-0.000198515
-0.000199297
-0.0002
-0.000200621
-0.000201163
-0.000201622
-0.000201999
-0.000202295
-0.000202509
-0.000202644
-0.000202702
-0.000202684
-0.000202595
-0.000202438
-0.000202221
-0.000201954
-0.000201645
-0.000201309
-0.000200961
-0.000200623
-0.000200317
-0.000200068
-0.000199903
-0.000199837
4.20022e-06
5.4965e-06
7.10353e-06
8.81181e-06
1.04423e-05
1.19386e-05
1.32951e-05
1.45154e-05
1.56072e-05
1.65733e-05
1.74161e-05
1.81424e-05
1.87507e-05
1.92435e-05
1.96236e-05
1.98915e-05
2.00543e-05
2.01143e-05
2.00732e-05
1.99333e-05
1.96951e-05
1.93634e-05
1.89414e-05
1.84315e-05
1.78369e-05
1.71591e-05
1.64005e-05
1.55639e-05
1.46509e-05
1.36645e-05
1.2608e-05
1.14844e-05
1.02976e-05
9.04906e-06
7.73962e-06
6.37314e-06
4.9536e-06
3.48303e-06
1.96468e-06
4.0207e-07
-1.20458e-06
-2.85473e-06
-4.54595e-06
-6.27664e-06
-8.04484e-06
-9.84997e-06
-1.16908e-05
-1.35645e-05
-1.54688e-05
-1.74023e-05
-1.9364e-05
-2.13522e-05
-2.33648e-05
-2.54003e-05
-2.7459e-05
-2.95403e-05
-3.16417e-05
-3.37623e-05
-3.59028e-05
-3.80626e-05
-4.02392e-05
-4.24318e-05
-4.46403e-05
-4.6864e-05
-4.91018e-05
-5.13529e-05
-5.36153e-05
-5.58882e-05
-5.81726e-05
-6.04691e-05
-6.27757e-05
-6.50911e-05
-6.7416e-05
-6.9751e-05
-7.20948e-05
-7.44455e-05
-7.68019e-05
-7.91643e-05
-8.15329e-05
-8.3907e-05
-8.62863e-05
-8.86705e-05
-9.10589e-05
-9.34505e-05
-9.58452e-05
-9.82423e-05
-0.00010064
-0.000103039
-0.000105438
-0.000107838
-0.000110239
-0.000112637
-0.000115031
-0.000117421
-0.000119806
-0.000122187
-0.000124562
-0.00012693
-0.00012929
-0.000131641
-0.000133982
-0.000136311
-0.000138625
-0.000140924
-0.000143206
-0.00014547
-0.000147717
-0.000149946
-0.000152153
-0.000154337
-0.000156495
-0.000158626
-0.00016073
-0.000162804
-0.000164847
-0.000166856
-0.000168829
-0.000170765
-0.000172662
-0.000174519
-0.000176332
-0.0001781
-0.00017982
-0.000181491
-0.000183111
-0.000184679
-0.000186193
-0.000187649
-0.000189044
-0.000190377
-0.000191646
-0.000192849
-0.000193985
-0.000195052
-0.000196049
-0.000196973
-0.000197823
-0.000198598
-0.000199296
-0.000199917
-0.00020046
-0.000200924
-0.000201309
-0.000201617
-0.000201847
-0.000202001
-0.000202083
-0.000202095
-0.000202039
-0.00020192
-0.000201746
-0.000201526
-0.000201267
-0.000200984
-0.000200687
-0.000200393
-0.000200121
-0.000199896
-0.000199738
-0.000199647
6.35279e-06
7.22992e-06
8.37635e-06
9.67815e-06
1.10069e-05
1.2284e-05
1.34751e-05
1.45685e-05
1.5559e-05
1.64423e-05
1.72178e-05
1.78846e-05
1.84442e-05
1.88987e-05
1.92459e-05
1.94894e-05
1.9631e-05
1.96734e-05
1.96202e-05
1.94704e-05
1.92277e-05
1.88944e-05
1.84733e-05
1.79675e-05
1.73783e-05
1.67072e-05
1.59571e-05
1.51301e-05
1.42284e-05
1.32551e-05
1.22118e-05
1.11017e-05
9.92876e-06
8.69422e-06
7.40047e-06
6.05105e-06
4.64721e-06
3.19152e-06
1.68882e-06
1.41533e-07
-1.45019e-06
-3.08514e-06
-4.76144e-06
-6.47797e-06
-8.23321e-06
-1.00255e-05
-1.18537e-05
-1.3715e-05
-1.56074e-05
-1.75304e-05
-1.94825e-05
-2.14609e-05
-2.34642e-05
-2.54922e-05
-2.75446e-05
-2.96188e-05
-3.17129e-05
-3.38275e-05
-3.59629e-05
-3.81178e-05
-4.02908e-05
-4.24809e-05
-4.46873e-05
-4.69093e-05
-4.91457e-05
-5.13951e-05
-5.36557e-05
-5.59274e-05
-5.82119e-05
-6.05086e-05
-6.28155e-05
-6.51319e-05
-6.74587e-05
-6.97953e-05
-7.21399e-05
-7.44909e-05
-7.68482e-05
-7.92119e-05
-8.15822e-05
-8.39583e-05
-8.6339e-05
-8.87236e-05
-9.11116e-05
-9.35033e-05
-9.58987e-05
-9.82959e-05
-0.000100693
-0.00010309
-0.000105488
-0.000107887
-0.000110285
-0.00011268
-0.000115071
-0.000117457
-0.000119838
-0.000122213
-0.000124583
-0.000126945
-0.000129298
-0.000131641
-0.000133973
-0.000136292
-0.000138596
-0.000140884
-0.000143154
-0.000145407
-0.000147642
-0.000149857
-0.000152051
-0.00015422
-0.000156363
-0.000158478
-0.000160566
-0.000162623
-0.000164648
-0.000166639
-0.000168593
-0.00017051
-0.000172389
-0.000174227
-0.000176022
-0.000177771
-0.000179471
-0.000181123
-0.000182724
-0.000184274
-0.000185769
-0.000187208
-0.000188586
-0.000189901
-0.000191154
-0.000192343
-0.000193466
-0.000194521
-0.000195508
-0.000196423
-0.000197265
-0.000198035
-0.00019873
-0.00019935
-0.000199895
-0.000200364
-0.000200756
-0.000201073
-0.000201316
-0.000201486
-0.000201587
-0.000201621
-0.000201591
-0.000201502
-0.000201358
-0.00020117
-0.000200945
-0.000200694
-0.000200429
-0.00020016
-0.000199899
-0.000199668
-0.000199483
-0.000199338
7.89587e-06
8.61186e-06
9.50424e-06
1.05319e-05
1.16227e-05
1.2709e-05
1.37489e-05
1.47204e-05
1.56104e-05
1.64134e-05
1.71203e-05
1.7729e-05
1.82397e-05
1.8651e-05
1.89651e-05
1.91816e-05
1.9301e-05
1.93262e-05
1.92577e-05
1.90972e-05
1.88474e-05
1.851e-05
1.80878e-05
1.75827e-05
1.69964e-05
1.63305e-05
1.55863e-05
1.47661e-05
1.38729e-05
1.29091e-05
1.18774e-05
1.078e-05
9.61824e-06
8.39514e-06
7.11468e-06
5.77864e-06
4.38843e-06
2.94773e-06
1.45925e-06
-7.50902e-08
-1.65414e-06
-3.27616e-06
-4.93945e-06
-6.64367e-06
-8.38774e-06
-1.01694e-05
-1.19867e-05
-1.38372e-05
-1.57198e-05
-1.7634e-05
-1.95772e-05
-2.15467e-05
-2.35424e-05
-2.55643e-05
-2.76105e-05
-2.96785e-05
-3.17679e-05
-3.38789e-05
-3.60103e-05
-3.81612e-05
-4.03309e-05
-4.25184e-05
-4.47231e-05
-4.69441e-05
-4.91798e-05
-5.14279e-05
-5.36882e-05
-5.59611e-05
-5.82466e-05
-6.05434e-05
-6.28506e-05
-6.51686e-05
-6.74977e-05
-6.98363e-05
-7.21824e-05
-7.45349e-05
-7.68938e-05
-7.92591e-05
-8.16311e-05
-8.40092e-05
-8.6392e-05
-8.8778e-05
-9.11673e-05
-9.35602e-05
-9.5956e-05
-9.83528e-05
-0.000100749
-0.000103147
-0.000105545
-0.000107942
-0.000110338
-0.000112731
-0.000115119
-0.000117502
-0.000119879
-0.000122251
-0.000124615
-0.000126972
-0.000129319
-0.000131655
-0.000133979
-0.00013629
-0.000138584
-0.000140862
-0.000143121
-0.000145364
-0.000147588
-0.000149792
-0.000151972
-0.000154128
-0.000156257
-0.000158359
-0.000160431
-0.000162473
-0.000164482
-0.000166456
-0.000168393
-0.000170293
-0.000172155
-0.000173976
-0.000175754
-0.000177485
-0.000179169
-0.000180803
-0.000182387
-0.00018392
-0.000185398
-0.00018682
-0.000188183
-0.000189484
-0.000190723
-0.000191899
-0.00019301
-0.000194055
-0.000195032
-0.000195939
-0.000196775
-0.00019754
-0.000198233
-0.000198854
-0.000199401
-0.000199874
-0.000200272
-0.000200597
-0.00020085
-0.000201035
-0.000201153
-0.000201206
-0.000201197
-0.000201131
-0.000201012
-0.000200848
-0.000200645
-0.000200415
-0.000200167
-0.000199909
-0.000199651
-0.000199404
-0.000199175
-0.000198956
9.06444e-06
9.71568e-06
1.04718e-05
1.1326e-05
1.22449e-05
1.31793e-05
1.40907e-05
1.49523e-05
1.57512e-05
1.64739e-05
1.71144e-05
1.76681e-05
1.813e-05
1.85005e-05
1.87795e-05
1.89671e-05
1.90636e-05
1.90694e-05
1.89851e-05
1.88128e-05
1.85539e-05
1.8211e-05
1.77854e-05
1.72786e-05
1.6693e-05
1.60296e-05
1.52893e-05
1.44748e-05
1.35874e-05
1.26305e-05
1.16079e-05
1.05201e-05
9.36819e-06
8.15611e-06
6.88608e-06
5.55994e-06
4.18111e-06
2.75302e-06
1.27674e-06
-2.46487e-07
-1.81438e-06
-3.42552e-06
-5.07843e-06
-6.77241e-06
-8.50678e-06
-1.02792e-05
-1.20869e-05
-1.39287e-05
-1.58038e-05
-1.77103e-05
-1.96456e-05
-2.16084e-05
-2.35987e-05
-2.56153e-05
-2.76557e-05
-2.97187e-05
-3.18045e-05
-3.39127e-05
-3.60417e-05
-3.81903e-05
-4.03579e-05
-4.2544e-05
-4.4748e-05
-4.69687e-05
-4.92035e-05
-5.14509e-05
-5.37119e-05
-5.59867e-05
-5.82738e-05
-6.05717e-05
-6.28805e-05
-6.52011e-05
-6.75326e-05
-6.98732e-05
-7.22213e-05
-7.45762e-05
-7.69379e-05
-7.9306e-05
-8.16802e-05
-8.40603e-05
-8.64448e-05
-8.88329e-05
-9.12248e-05
-9.36199e-05
-9.60167e-05
-9.84137e-05
-0.000100811
-0.000103208
-0.000105607
-0.000108005
-0.000110399
-0.00011279
-0.000115176
-0.000117557
-0.000119931
-0.000122299
-0.00012466
-0.000127011
-0.000129353
-0.000131683
-0.000134001
-0.000136304
-0.00013859
-0.000140859
-0.00014311
-0.000145343
-0.000147558
-0.000149751
-0.000151919
-0.000154063
-0.00015618
-0.000158268
-0.000160328
-0.000162355
-0.00016435
-0.000166309
-0.000168231
-0.000170117
-0.000171963
-0.000173769
-0.00017553
-0.000177246
-0.000178913
-0.000180532
-0.000182101
-0.000183619
-0.000185082
-0.000186489
-0.000187838
-0.000189126
-0.000190353
-0.000191518
-0.000192619
-0.000193655
-0.000194623
-0.000195523
-0.000196354
-0.000197116
-0.000197807
-0.000198428
-0.000198977
-0.000199453
-0.000199856
-0.000200189
-0.000200453
-0.00020065
-0.000200782
-0.000200851
-0.000200859
-0.000200809
-0.000200709
-0.000200563
-0.000200376
-0.000200158
-0.000199915
-0.000199656
-0.000199389
-0.000199119
-0.00019884
-0.000198538
9.98341e-06
1.06213e-05
1.13092e-05
1.20557e-05
1.28564e-05
1.36755e-05
1.44808e-05
1.52515e-05
1.59673e-05
1.66176e-05
1.71964e-05
1.76959e-05
1.81125e-05
1.84438e-05
1.86886e-05
1.88474e-05
1.89196e-05
1.89045e-05
1.88039e-05
1.86179e-05
1.83491e-05
1.79989e-05
1.75679e-05
1.70582e-05
1.64708e-05
1.5807e-05
1.50685e-05
1.42572e-05
1.33744e-05
1.24232e-05
1.14062e-05
1.03246e-05
9.18108e-06
7.97793e-06
6.71638e-06
5.3989e-06
4.0296e-06
2.61096e-06
1.14386e-06
-3.69874e-07
-1.9283e-06
-3.53065e-06
-5.17543e-06
-6.86161e-06
-8.58823e-06
-1.03525e-05
-1.21525e-05
-1.39879e-05
-1.58569e-05
-1.77566e-05
-1.96856e-05
-2.16438e-05
-2.36302e-05
-2.56425e-05
-2.76787e-05
-2.97387e-05
-3.1822e-05
-3.39279e-05
-3.60553e-05
-3.82028e-05
-4.03696e-05
-4.25556e-05
-4.47601e-05
-4.69809e-05
-4.92156e-05
-5.14639e-05
-5.37267e-05
-5.60034e-05
-5.82921e-05
-6.05922e-05
-6.29043e-05
-6.52283e-05
-6.75627e-05
-6.99058e-05
-7.22564e-05
-7.46141e-05
-7.6979e-05
-7.93508e-05
-8.17286e-05
-8.41113e-05
-8.6498e-05
-8.88887e-05
-9.12838e-05
-9.36813e-05
-9.60797e-05
-9.8478e-05
-0.000100877
-0.000103276
-0.000105675
-0.000108073
-0.000110468
-0.000112857
-0.000115242
-0.000117621
-0.000119994
-0.000122359
-0.000124716
-0.000127063
-0.000129401
-0.000131727
-0.000134039
-0.000136336
-0.000138615
-0.000140877
-0.000143121
-0.000145346
-0.000147552
-0.000149735
-0.000151893
-0.000154026
-0.000156131
-0.000158209
-0.000160257
-0.000162273
-0.000164254
-0.0001662
-0.000168109
-0.000169982
-0.000171815
-0.000173607
-0.000175354
-0.000177055
-0.000178708
-0.000180313
-0.000181869
-0.000183374
-0.000184824
-0.000186218
-0.000187555
-0.000188832
-0.000190049
-0.000191204
-0.000192296
-0.000193324
-0.000194285
-0.000195179
-0.000196005
-0.000196765
-0.000197455
-0.000198076
-0.000198626
-0.000199105
-0.000199513
-0.000199853
-0.000200125
-0.000200333
-0.000200476
-0.000200557
-0.000200577
-0.00020054
-0.000200451
-0.000200315
-0.000200139
-0.000199926
-0.000199683
-0.000199414
-0.000199128
-0.000198829
-0.000198497
-0.000198111
1.07454e-05
1.13945e-05
1.20496e-05
1.27324e-05
1.34543e-05
1.41875e-05
1.49107e-05
1.56031e-05
1.62487e-05
1.68363e-05
1.73574e-05
1.78067e-05
1.81799e-05
1.84734e-05
1.86861e-05
1.88166e-05
1.8864e-05
1.88286e-05
1.87102e-05
1.85103e-05
1.82301e-05
1.78704e-05
1.7433e-05
1.69188e-05
1.63278e-05
1.5662e-05
1.49226e-05
1.41119e-05
1.32324e-05
1.22852e-05
1.12717e-05
1.01947e-05
9.05695e-06
7.8595e-06
6.60421e-06
5.29471e-06
3.9332e-06
2.5215e-06
1.06168e-06
-4.44661e-07
-1.99592e-06
-3.59125e-06
-5.22993e-06
-6.91049e-06
-8.63081e-06
-1.03885e-05
-1.2183e-05
-1.40137e-05
-1.58774e-05
-1.77718e-05
-1.96968e-05
-2.16519e-05
-2.36351e-05
-2.56442e-05
-2.76781e-05
-2.97368e-05
-3.18191e-05
-3.3924e-05
-3.60507e-05
-3.81979e-05
-4.03654e-05
-4.25527e-05
-4.47581e-05
-4.69791e-05
-4.92151e-05
-5.1466e-05
-5.37315e-05
-5.60104e-05
-5.83014e-05
-6.06049e-05
-6.2921e-05
-6.5249e-05
-6.7587e-05
-6.99335e-05
-7.22876e-05
-7.46487e-05
-7.70173e-05
-7.93933e-05
-8.17749e-05
-8.41609e-05
-8.65511e-05
-8.89457e-05
-9.13442e-05
-9.37444e-05
-9.61447e-05
-9.85455e-05
-0.000100947
-0.000103349
-0.00010575
-0.000108148
-0.000110543
-0.000112933
-0.000115317
-0.000117695
-0.000120066
-0.00012243
-0.000124784
-0.000127129
-0.000129464
-0.000131787
-0.000134095
-0.000136386
-0.00013866
-0.000140916
-0.000143154
-0.000145373
-0.00014757
-0.000149744
-0.000151894
-0.000154017
-0.000156114
-0.000158182
-0.00016022
-0.000162225
-0.000164195
-0.00016613
-0.000168029
-0.000169889
-0.000171711
-0.00017349
-0.000175224
-0.000176912
-0.000178553
-0.000180146
-0.000181691
-0.000183184
-0.000184623
-0.000186007
-0.000187333
-0.0001886
-0.000189808
-0.000190955
-0.000192039
-0.00019306
-0.000194015
-0.000194904
-0.000195727
-0.000196484
-0.000197174
-0.000197794
-0.000198345
-0.000198826
-0.000199239
-0.000199585
-0.000199866
-0.000200081
-0.000200233
-0.000200323
-0.000200352
-0.000200323
-0.000200241
-0.000200111
-0.000199938
-0.000199725
-0.000199475
-0.000199192
-0.000198881
-0.000198549
-0.000198163
-0.000197698
1.14067e-05
1.2083e-05
1.27275e-05
1.3372e-05
1.40409e-05
1.4715e-05
1.53722e-05
1.60005e-05
1.65871e-05
1.71197e-05
1.75907e-05
1.79948e-05
1.83272e-05
1.85857e-05
1.87672e-05
1.88699e-05
1.88935e-05
1.88369e-05
1.8701e-05
1.84866e-05
1.81938e-05
1.7824e-05
1.73784e-05
1.68572e-05
1.62615e-05
1.55922e-05
1.48502e-05
1.40386e-05
1.31597e-05
1.22138e-05
1.12027e-05
1.01296e-05
8.99519e-06
7.80093e-06
6.55047e-06
5.2467e-06
3.89057e-06
2.48436e-06
1.03016e-06
-4.7083e-07
-2.01679e-06
-3.60721e-06
-5.24173e-06
-6.91787e-06
-8.63327e-06
-1.03869e-05
-1.21782e-05
-1.40048e-05
-1.58642e-05
-1.77556e-05
-1.96787e-05
-2.16317e-05
-2.36126e-05
-2.562e-05
-2.76532e-05
-2.97117e-05
-3.17943e-05
-3.38996e-05
-3.60266e-05
-3.81749e-05
-4.03443e-05
-4.25339e-05
-4.47407e-05
-4.69631e-05
-4.92015e-05
-5.14559e-05
-5.37248e-05
-5.60067e-05
-5.83013e-05
-6.06093e-05
-6.29302e-05
-6.52625e-05
-6.76045e-05
-6.99551e-05
-7.23136e-05
-7.46794e-05
-7.70527e-05
-7.94331e-05
-8.18188e-05
-8.42088e-05
-8.66037e-05
-8.9003e-05
-9.14054e-05
-9.38088e-05
-9.62122e-05
-9.86163e-05
-0.000101021
-0.000103426
-0.00010583
-0.00010823
-0.000110626
-0.000113017
-0.000115401
-0.000117779
-0.00012015
-0.000122512
-0.000124865
-0.000127209
-0.000129542
-0.000131863
-0.000134168
-0.000136455
-0.000138724
-0.000140976
-0.000143209
-0.000145422
-0.000147613
-0.00014978
-0.000151922
-0.000154038
-0.000156127
-0.000158187
-0.000160216
-0.000162213
-0.000164174
-0.000166099
-0.000167988
-0.000169839
-0.000171649
-0.000173417
-0.00017514
-0.000176817
-0.000178448
-0.000180031
-0.000181566
-0.000183049
-0.000184479
-0.000185853
-0.00018717
-0.000188429
-0.000189629
-0.000190769
-0.000191847
-0.000192861
-0.000193812
-0.000194697
-0.000195518
-0.000196273
-0.000196961
-0.000197581
-0.000198133
-0.000198617
-0.000199033
-0.000199385
-0.000199672
-0.000199894
-0.000200052
-0.000200147
-0.000200181
-0.000200157
-0.00020008
-0.000199952
-0.000199777
-0.000199559
-0.000199299
-0.000198997
-0.000198661
-0.000198292
-0.000197855
-0.000197315
1.20107e-05
1.27213e-05
1.3369e-05
1.39906e-05
1.46258e-05
1.52555e-05
1.58637e-05
1.64414e-05
1.69773e-05
1.74629e-05
1.78906e-05
1.82543e-05
1.85503e-05
1.87758e-05
1.89276e-05
1.90039e-05
1.90039e-05
1.89268e-05
1.87734e-05
1.85434e-05
1.82378e-05
1.7857e-05
1.74015e-05
1.68721e-05
1.62696e-05
1.55952e-05
1.485e-05
1.40363e-05
1.31554e-05
1.22086e-05
1.11989e-05
1.01271e-05
8.994e-06
7.80247e-06
6.55533e-06
5.25466e-06
3.90212e-06
2.49968e-06
1.04916e-06
-4.4813e-07
-1.99093e-06
-3.57886e-06
-5.21048e-06
-6.88305e-06
-8.59546e-06
-1.03474e-05
-1.21365e-05
-1.39601e-05
-1.58172e-05
-1.77075e-05
-1.96298e-05
-2.15817e-05
-2.35619e-05
-2.55692e-05
-2.76029e-05
-2.96625e-05
-3.17465e-05
-3.38533e-05
-3.59821e-05
-3.8133e-05
-4.03055e-05
-4.24975e-05
-4.47065e-05
-4.69319e-05
-4.91742e-05
-5.14326e-05
-5.37052e-05
-5.59912e-05
-5.82909e-05
-6.06045e-05
-6.29308e-05
-6.52681e-05
-6.76148e-05
-6.997e-05
-7.23335e-05
-7.47051e-05
-7.70842e-05
-7.94695e-05
-8.18597e-05
-8.4255e-05
-8.66555e-05
-8.906e-05
-9.14666e-05
-9.38739e-05
-9.62817e-05
-9.86902e-05
-0.000101099
-0.000103508
-0.000105915
-0.000108318
-0.000110716
-0.000113108
-0.000115494
-0.000117873
-0.000120244
-0.000122606
-0.00012496
-0.000127304
-0.000129636
-0.000131955
-0.000134257
-0.000136542
-0.000138808
-0.000141057
-0.000143287
-0.000145495
-0.000147681
-0.000149842
-0.000151978
-0.000154088
-0.000156171
-0.000158225
-0.000160247
-0.000162235
-0.000164188
-0.000166106
-0.000167987
-0.000169829
-0.000171631
-0.000173389
-0.000175102
-0.00017677
-0.000178392
-0.000179967
-0.000181494
-0.000182969
-0.00018439
-0.000185757
-0.000187066
-0.000188318
-0.000189511
-0.000190645
-0.000191718
-0.000192727
-0.000193674
-0.000194557
-0.000195375
-0.000196129
-0.000196816
-0.000197436
-0.000197989
-0.000198475
-0.000198895
-0.00019925
-0.000199542
-0.000199769
-0.000199931
-0.00020003
-0.000200067
-0.000200046
-0.000199969
-0.000199841
-0.000199662
-0.000199435
-0.000199161
-0.00019884
-0.000198476
-0.000198072
-0.000197586
-0.000196978
1.25871e-05
1.33349e-05
1.39927e-05
1.46049e-05
1.52156e-05
1.58136e-05
1.63865e-05
1.69237e-05
1.74183e-05
1.78636e-05
1.8253e-05
1.85817e-05
1.88448e-05
1.90399e-05
1.91639e-05
1.9215e-05
1.91921e-05
1.90953e-05
1.89239e-05
1.86784e-05
1.83595e-05
1.79667e-05
1.75004e-05
1.69617e-05
1.63508e-05
1.56696e-05
1.49202e-05
1.41025e-05
1.32182e-05
1.22701e-05
1.12592e-05
1.0186e-05
9.05313e-06
7.86311e-06
6.61734e-06
5.31824e-06
3.96776e-06
2.56729e-06
1.11898e-06
-3.76238e-07
-1.91819e-06
-3.5053e-06
-5.13508e-06
-6.80597e-06
-8.51773e-06
-1.0269e-05
-1.20567e-05
-1.38791e-05
-1.57361e-05
-1.76266e-05
-1.9549e-05
-2.15013e-05
-2.34821e-05
-2.54909e-05
-2.75267e-05
-2.95884e-05
-3.16745e-05
-3.37838e-05
-3.59161e-05
-3.80713e-05
-4.02474e-05
-4.24422e-05
-4.46547e-05
-4.68848e-05
-4.9132e-05
-5.13948e-05
-5.36719e-05
-5.59633e-05
-5.82692e-05
-6.0589e-05
-6.29213e-05
-6.52644e-05
-6.76167e-05
-6.99775e-05
-7.23471e-05
-7.47252e-05
-7.71104e-05
-7.95013e-05
-8.18973e-05
-8.4299e-05
-8.6706e-05
-8.91161e-05
-9.15275e-05
-9.39397e-05
-9.63528e-05
-9.87667e-05
-0.000101181
-0.000103594
-0.000106004
-0.000108411
-0.000110812
-0.000113207
-0.000115596
-0.000117977
-0.000120349
-0.000122713
-0.000125068
-0.000127412
-0.000129745
-0.000132063
-0.000134364
-0.000136647
-0.000138912
-0.000141159
-0.000143386
-0.000145591
-0.000147773
-0.00014993
-0.000152062
-0.000154168
-0.000156246
-0.000158295
-0.000160311
-0.000162293
-0.000164239
-0.000166151
-0.000168025
-0.00016986
-0.000171654
-0.000173405
-0.00017511
-0.000176771
-0.000178386
-0.000179955
-0.000181474
-0.000182943
-0.000184357
-0.000185716
-0.000187019
-0.000188266
-0.000189454
-0.000190583
-0.000191651
-0.000192657
-0.000193601
-0.000194481
-0.000195299
-0.000196052
-0.000196738
-0.000197358
-0.000197912
-0.0001984
-0.000198823
-0.000199181
-0.000199476
-0.000199706
-0.000199871
-0.000199973
-0.000200012
-0.000199991
-0.000199914
-0.000199782
-0.000199597
-0.000199358
-0.000199068
-0.000198726
-0.000198335
-0.000197899
-0.000197368
-0.000196697
1.31603e-05
1.39427e-05
1.4617e-05
1.52254e-05
1.58209e-05
1.63965e-05
1.69408e-05
1.74471e-05
1.79088e-05
1.83201e-05
1.86767e-05
1.8974e-05
1.92077e-05
1.93746e-05
1.94726e-05
1.94997e-05
1.94557e-05
1.93394e-05
1.91505e-05
1.88894e-05
1.8556e-05
1.81502e-05
1.76726e-05
1.71234e-05
1.65033e-05
1.58148e-05
1.50588e-05
1.42354e-05
1.33475e-05
1.23964e-05
1.13822e-05
1.03067e-05
9.17277e-06
7.98215e-06
6.73624e-06
5.43724e-06
4.08698e-06
2.6871e-06
1.23937e-06
-2.56075e-07
-1.79867e-06
-3.38568e-06
-5.01526e-06
-6.68694e-06
-8.39974e-06
-1.01511e-05
-1.19386e-05
-1.37619e-05
-1.56204e-05
-1.75122e-05
-1.94358e-05
-2.13896e-05
-2.33726e-05
-2.53844e-05
-2.74236e-05
-2.94884e-05
-3.15777e-05
-3.36909e-05
-3.58281e-05
-3.79881e-05
-4.01683e-05
-4.23671e-05
-4.45845e-05
-4.68204e-05
-4.90731e-05
-5.13413e-05
-5.36242e-05
-5.59223e-05
-5.82353e-05
-6.0562e-05
-6.29008e-05
-6.52502e-05
-6.7609e-05
-6.99767e-05
-7.23535e-05
-7.47387e-05
-7.71304e-05
-7.95279e-05
-8.19312e-05
-8.43405e-05
-8.67543e-05
-8.91706e-05
-9.15878e-05
-9.40059e-05
-9.64252e-05
-9.88452e-05
-0.000101265
-0.000103683
-0.000106098
-0.000108509
-0.000110915
-0.000113315
-0.000115707
-0.000118091
-0.000120466
-0.000122832
-0.000125189
-0.000127536
-0.000129869
-0.000132187
-0.000134488
-0.000136771
-0.000139036
-0.000141283
-0.000143508
-0.000145711
-0.000147891
-0.000150045
-0.000152174
-0.000154278
-0.000156353
-0.000158397
-0.000160408
-0.000162385
-0.000164327
-0.000166233
-0.000168103
-0.000169932
-0.00017172
-0.000173464
-0.000175164
-0.00017682
-0.00017843
-0.000179993
-0.000181507
-0.000182969
-0.000184377
-0.000185731
-0.00018703
-0.000188272
-0.000189457
-0.000190582
-0.000191646
-0.00019265
-0.000193592
-0.000194471
-0.000195288
-0.00019604
-0.000196727
-0.000197348
-0.000197903
-0.000198392
-0.000198817
-0.000199178
-0.000199474
-0.000199707
-0.000199874
-0.000199977
-0.000200018
-0.000199996
-0.000199916
-0.000199779
-0.000199585
-0.000199334
-0.000199027
-0.000198664
-0.000198248
-0.000197781
-0.000197208
-0.000196481
1.37486e-05
1.45632e-05
1.52513e-05
1.5862e-05
1.64505e-05
1.70087e-05
1.75315e-05
1.8013e-05
1.84479e-05
1.88315e-05
1.91597e-05
1.94291e-05
1.96359e-05
1.97774e-05
1.9851e-05
1.98561e-05
1.97915e-05
1.96562e-05
1.94507e-05
1.91736e-05
1.88251e-05
1.84061e-05
1.79156e-05
1.7355e-05
1.67259e-05
1.60286e-05
1.52641e-05
1.44348e-05
1.35417e-05
1.25852e-05
1.15668e-05
1.04885e-05
9.35183e-06
8.15908e-06
6.91167e-06
5.61113e-06
4.25981e-06
2.85916e-06
1.40963e-06
-8.81504e-08
-1.63207e-06
-3.22003e-06
-4.85168e-06
-6.52598e-06
-8.24049e-06
-9.99294e-06
-1.17824e-05
-1.36083e-05
-1.54693e-05
-1.73636e-05
-1.92897e-05
-2.12464e-05
-2.3233e-05
-2.52489e-05
-2.72924e-05
-2.93613e-05
-3.14551e-05
-3.3574e-05
-3.57171e-05
-3.78823e-05
-4.00674e-05
-4.22717e-05
-4.44954e-05
-4.67377e-05
-4.89965e-05
-5.12709e-05
-5.35611e-05
-5.5867e-05
-5.81878e-05
-6.05223e-05
-6.28684e-05
-6.52248e-05
-6.7591e-05
-6.99668e-05
-7.23518e-05
-7.47445e-05
-7.71435e-05
-7.95489e-05
-8.19608e-05
-8.43784e-05
-8.67997e-05
-8.92228e-05
-9.1647e-05
-9.40721e-05
-9.64983e-05
-9.89252e-05
-0.000101351
-0.000103776
-0.000106197
-0.000108613
-0.000111025
-0.000113429
-0.000115826
-0.000118214
-0.000120593
-0.000122963
-0.000125324
-0.000127673
-0.000130008
-0.000132327
-0.000134629
-0.000136913
-0.00013918
-0.000141427
-0.000143652
-0.000145854
-0.000148033
-0.000150187
-0.000152315
-0.000154417
-0.00015649
-0.000158531
-0.000160538
-0.000162511
-0.00016445
-0.000166354
-0.000168219
-0.000170045
-0.000171828
-0.000173568
-0.000175265
-0.000176917
-0.000178523
-0.000180082
-0.000181591
-0.000183048
-0.000184452
-0.000185802
-0.000187098
-0.000188337
-0.000189519
-0.000190642
-0.000191703
-0.000192705
-0.000193646
-0.000194525
-0.000195342
-0.000196095
-0.000196782
-0.000197404
-0.000197959
-0.00019845
-0.000198876
-0.000199239
-0.000199538
-0.000199772
-0.00019994
-0.000200044
-0.000200084
-0.000200061
-0.000199977
-0.000199833
-0.00019963
-0.000199367
-0.000199044
-0.000198661
-0.00019822
-0.000197724
-0.000197113
-0.000196337
1.4366e-05
1.52071e-05
1.59094e-05
1.65251e-05
1.71087e-05
1.76569e-05
1.81631e-05
1.8624e-05
1.90372e-05
1.93976e-05
1.97014e-05
1.99458e-05
2.01282e-05
2.02459e-05
2.02977e-05
2.02819e-05
2.01973e-05
2.00443e-05
1.98215e-05
1.95283e-05
1.91652e-05
1.87315e-05
1.82276e-05
1.76557e-05
1.70161e-05
1.63086e-05
1.55361e-05
1.46997e-05
1.37992e-05
1.28361e-05
1.18124e-05
1.07297e-05
9.5892e-06
8.39301e-06
7.14252e-06
5.83949e-06
4.48607e-06
3.08258e-06
1.62933e-06
1.2839e-07
-1.41804e-06
-3.00917e-06
-4.64467e-06
-6.32241e-06
-8.03951e-06
-9.79496e-06
-1.15881e-05
-1.34176e-05
-1.52824e-05
-1.71803e-05
-1.91101e-05
-2.10713e-05
-2.30631e-05
-2.50841e-05
-2.71324e-05
-2.92066e-05
-3.13067e-05
-3.34324e-05
-3.55819e-05
-3.77527e-05
-3.9944e-05
-4.21554e-05
-4.43866e-05
-4.66358e-05
-4.89016e-05
-5.11836e-05
-5.34821e-05
-5.57966e-05
-5.81261e-05
-6.0469e-05
-6.28232e-05
-6.51875e-05
-6.75623e-05
-6.99472e-05
-7.23409e-05
-7.47419e-05
-7.71494e-05
-7.95642e-05
-8.19857e-05
-8.44121e-05
-8.68415e-05
-8.92724e-05
-9.17046e-05
-9.41377e-05
-9.65718e-05
-9.90063e-05
-0.00010144
-0.000103871
-0.000106299
-0.000108723
-0.000111141
-0.000113551
-0.000115953
-0.000118346
-0.000120731
-0.000123106
-0.000125472
-0.000127824
-0.000130162
-0.000132483
-0.000134788
-0.000137075
-0.000139344
-0.000141592
-0.000143819
-0.000146022
-0.000148201
-0.000150356
-0.000152485
-0.000154587
-0.000156658
-0.000158697
-0.000160703
-0.000162674
-0.000164611
-0.000166513
-0.000168376
-0.000170199
-0.00017198
-0.000173718
-0.000175412
-0.000177062
-0.000178665
-0.000180221
-0.000181726
-0.00018318
-0.000184582
-0.00018593
-0.000187224
-0.000188461
-0.000189641
-0.000190762
-0.000191822
-0.000192823
-0.000193764
-0.000194643
-0.000195461
-0.000196215
-0.000196903
-0.000197525
-0.000198082
-0.000198574
-0.000199001
-0.000199366
-0.000199666
-0.000199901
-0.000200071
-0.000200175
-0.000200214
-0.000200188
-0.0002001
-0.000199949
-0.000199736
-0.00019946
-0.000199122
-0.00019872
-0.000198257
-0.000197734
-0.00019709
-0.00019627
1.50203e-05
1.58874e-05
1.66035e-05
1.72214e-05
1.78041e-05
1.83452e-05
1.88391e-05
1.92839e-05
1.96781e-05
2.00181e-05
2.03006e-05
2.0523e-05
2.06829e-05
2.07795e-05
2.08109e-05
2.07751e-05
2.06724e-05
2.05012e-05
2.02611e-05
1.99522e-05
1.95732e-05
1.91246e-05
1.86079e-05
1.80234e-05
1.73716e-05
1.66542e-05
1.58728e-05
1.50273e-05
1.41186e-05
1.31484e-05
1.21184e-05
1.103e-05
9.88451e-06
8.68345e-06
7.42871e-06
6.12215e-06
4.76471e-06
3.3563e-06
1.89842e-06
3.9367e-07
-1.15713e-06
-2.7536e-06
-4.39397e-06
-6.07575e-06
-7.79696e-06
-9.55724e-06
-1.13554e-05
-1.31897e-05
-1.5059e-05
-1.69617e-05
-1.88967e-05
-2.0864e-05
-2.2862e-05
-2.48888e-05
-2.6943e-05
-2.90242e-05
-3.11321e-05
-3.32655e-05
-3.54217e-05
-3.75993e-05
-3.97982e-05
-4.20179e-05
-4.42569e-05
-4.65138e-05
-4.87878e-05
-5.10788e-05
-5.33867e-05
-5.57109e-05
-5.80497e-05
-6.04015e-05
-6.27645e-05
-6.51381e-05
-6.75228e-05
-6.99174e-05
-7.23201e-05
-7.47301e-05
-7.71478e-05