/*--------------------------------*- C++ -*----------------------------------*\
  =========                 |
  \\      /  F ield         | OpenFOAM: The Open Source CFD Toolbox
   \\    /   O peration     | Website:  https://openfoam.org
    \\  /    A nd           | Version:  7
     \\/     M anipulation  |
\*---------------------------------------------------------------------------*/
FoamFile
{
    version     2.0;
    format      ascii;
    class       surfaceScalarField;
    location    "0.475";
    object      phi;
}
// * * * * * * * * * * * * * * * * * * * * * * * * * * * * * * * * * * * * * //

dimensions      [0 3 -1 0 0 0 0];

internalField   nonuniform List<scalar> 
101920
(
-1.30881e-13
1.4294e-13
-6.29901e-13
4.9983e-13
-7.97032e-13
1.65471e-13
-7.5845e-13
-4.14555e-14
-4.62879e-13
-2.96268e-13
5.97645e-14
-5.2014e-13
7.67524e-13
-7.09533e-13
1.6379e-12
-8.68251e-13
2.64241e-12
-1.00463e-12
3.76284e-12
-1.11984e-12
4.98001e-12
-1.21869e-12
6.27954e-12
-1.29978e-12
7.64605e-12
-1.3673e-12
9.06703e-12
-1.42067e-12
1.05296e-11
-1.46296e-12
1.20246e-11
-1.49486e-12
1.35419e-11
-1.51652e-12
1.50717e-11
-1.52984e-12
1.66066e-11
-1.53464e-12
1.81383e-11
-1.53301e-12
1.96616e-11
-1.52444e-12
2.11708e-11
-1.50838e-12
2.26587e-11
-1.48836e-12
2.41231e-11
-1.46342e-12
2.55588e-11
-1.43447e-12
2.69614e-11
-1.40261e-12
2.83294e-11
-1.36688e-12
2.96584e-11
-1.32836e-12
3.09465e-11
-1.28757e-12
3.21928e-11
-1.24481e-12
3.33949e-11
-1.20156e-12
3.45521e-11
-1.15716e-12
3.56635e-11
-1.11118e-12
3.67273e-11
-1.06503e-12
3.77446e-11
-1.01828e-12
3.87156e-11
-9.70809e-13
3.96391e-11
-9.24547e-13
4.05165e-11
-8.79089e-13
4.1349e-11
-8.33102e-13
4.21357e-11
-7.87769e-13
4.2878e-11
-7.43545e-13
4.35785e-11
-7.00187e-13
4.42373e-11
-6.58345e-13
4.48551e-11
-6.17897e-13
4.54341e-11
-5.78516e-13
4.59753e-11
-5.40741e-13
4.64799e-11
-5.04709e-13
4.69505e-11
-4.69595e-13
4.73878e-11
-4.36309e-13
4.77934e-11
-4.05419e-13
4.81696e-11
-3.76516e-13
4.8518e-11
-3.48909e-13
4.884e-11
-3.22494e-13
4.91375e-11
-2.98112e-13
4.94125e-11
-2.75684e-13
4.96668e-11
-2.54342e-13
4.99015e-11
-2.34446e-13
5.01182e-11
-2.16665e-13
5.03195e-11
-2.00562e-13
5.05068e-11
-1.85977e-13
5.06805e-11
-1.73444e-13
5.08421e-11
-1.62479e-13
5.09934e-11
-1.52252e-13
5.11355e-11
-1.43163e-13
5.12693e-11
-1.35358e-13
5.13969e-11
-1.27979e-13
5.15192e-11
-1.21285e-13
5.16368e-11
-1.16401e-13
5.17508e-11
-1.13107e-13
5.18628e-11
-1.1056e-13
5.19727e-11
-1.08865e-13
5.208e-11
-1.08139e-13
5.21858e-11
-1.07614e-13
5.22916e-11
-1.06663e-13
5.2397e-11
-1.05589e-13
5.2502e-11
-1.05032e-13
5.26072e-11
-1.05069e-13
5.27128e-11
-1.05295e-13
5.28184e-11
-1.05555e-13
5.29236e-11
-1.05664e-13
5.30282e-11
-1.04978e-13
5.3132e-11
-1.0335e-13
5.32345e-11
-1.01508e-13
5.33351e-11
-9.99379e-14
5.34334e-11
-9.80789e-14
5.35286e-11
-9.51193e-14
5.36195e-11
-9.10387e-14
5.37047e-11
-8.60251e-14
5.3784e-11
-7.98714e-14
5.38567e-11
-7.23584e-14
5.39212e-11
-6.35894e-14
5.39759e-11
-5.40145e-14
5.40193e-11
-4.35107e-14
5.40503e-11
-3.13474e-14
5.4068e-11
-1.75368e-14
5.40706e-11
-2.35244e-15
5.40566e-11
1.43376e-14
5.40245e-11
3.26127e-14
5.3972e-11
5.26088e-14
5.38977e-11
7.42629e-14
5.37997e-11
9.76185e-14
5.36768e-11
1.22961e-13
5.35273e-11
1.50039e-13
5.3349e-11
1.78533e-13
5.31402e-11
2.08553e-13
5.28999e-11
2.40121e-13
5.26261e-11
2.7347e-13
5.23169e-11
3.08903e-13
5.19708e-11
3.46038e-13
5.15854e-11
3.84788e-13
5.11599e-11
4.2535e-13
5.06932e-11
4.67166e-13
5.01832e-11
5.1007e-13
4.96289e-11
5.54327e-13
4.90291e-11
5.99816e-13
4.83818e-11
6.46828e-13
4.76868e-11
6.95248e-13
4.69431e-11
7.44085e-13
4.61492e-11
7.93254e-13
4.5305e-11
8.4333e-13
4.44105e-11
8.94174e-13
4.34644e-11
9.45553e-13
4.24672e-11
9.97267e-13
4.14196e-11
1.04847e-12
4.03211e-11
1.09896e-12
3.91722e-11
1.14926e-12
3.79742e-11
1.19885e-12
3.67268e-11
1.24729e-12
3.54314e-11
1.29482e-12
3.40912e-11
1.34069e-12
3.27073e-11
1.38399e-12
3.12822e-11
1.42495e-12
2.98192e-11
1.46336e-12
2.83209e-11
1.4986e-12
2.67901e-11
1.53063e-12
2.52314e-11
1.55917e-12
2.36491e-11
1.58304e-12
2.20475e-11
1.60142e-12
2.04328e-11
1.61422e-12
1.88117e-11
1.62103e-12
1.71899e-11
1.62139e-12
1.55751e-11
1.61487e-12
1.3976e-11
1.6002e-12
1.24008e-11
1.57613e-12
1.08585e-11
1.54245e-12
9.36035e-12
1.49862e-12
7.91748e-12
1.4432e-12
6.54151e-12
1.3752e-12
5.24663e-12
1.29416e-12
4.04796e-12
1.19889e-12
2.95954e-12
1.08823e-12
1.99721e-12
9.61728e-13
1.17877e-12
8.18821e-13
5.20549e-13
6.5906e-13
3.63835e-14
4.83777e-13
-2.63546e-13
2.98211e-13
-3.76859e-13
1.12807e-13
-3.19175e-13
-5.38248e-14
-1.46437e-13
-1.63178e-13
-1.36471e-13
2.05388e-13
-6.15972e-14
1.61816e-13
5.40252e-13
1.99339e-13
1.321e-13
6.97829e-13
-5.38874e-13
1.68248e-12
-1.28205e-12
3.15674e-12
-1.99341e-12
5.08698e-12
-2.63989e-12
7.42934e-12
-3.21185e-12
1.01376e-11
-3.7117e-12
1.31634e-11
-4.14667e-12
1.64645e-11
-4.51775e-12
1.99976e-11
-4.83382e-12
2.3727e-11
-5.0955e-12
2.76147e-11
-5.30883e-12
3.16293e-11
-5.47873e-12
3.57408e-11
-5.60634e-12
3.99207e-11
-5.69713e-12
4.41452e-11
-5.75317e-12
4.83891e-11
-5.77875e-12
5.26338e-11
-5.77655e-12
5.68603e-11
-5.74818e-12
6.10481e-11
-5.69834e-12
6.51858e-11
-5.6271e-12
6.92588e-11
-5.53735e-12
7.3254e-11
-5.43183e-12
7.71627e-11
-5.31148e-12
8.09744e-11
-5.17944e-12
8.46801e-11
-5.03691e-12
8.82753e-11
-4.88411e-12
9.17531e-11
-4.72458e-12
9.5109e-11
-4.55899e-12
9.83407e-11
-4.38764e-12
1.01444e-10
-4.21392e-12
1.04418e-10
-4.03823e-12
1.07262e-10
-3.85977e-12
1.09974e-10
-3.68151e-12
1.12554e-10
-3.50468e-12
1.15007e-10
-3.32858e-12
1.1733e-10
-3.15484e-12
1.19527e-10
-2.98446e-12
1.216e-10
-2.81681e-12
1.23553e-10
-2.65294e-12
1.25387e-10
-2.49393e-12
1.27107e-10
-2.33895e-12
1.28718e-10
-2.18929e-12
1.30222e-10
-2.04591e-12
1.31623e-10
-1.90784e-12
1.32928e-10
-1.77498e-12
1.34139e-10
-1.64866e-12
1.35262e-10
-1.52911e-12
1.36303e-10
-1.41608e-12
1.37265e-10
-1.30961e-12
1.38152e-10
-1.21003e-12
1.38971e-10
-1.11727e-12
1.39728e-10
-1.0308e-12
1.40425e-10
-9.5094e-13
1.41067e-10
-8.78043e-13
1.4166e-10
-8.11143e-13
1.42209e-10
-7.49753e-13
1.42716e-10
-6.94296e-13
1.43188e-10
-6.44466e-13
1.43628e-10
-5.99848e-13
1.4404e-10
-5.61118e-13
1.44426e-10
-5.28445e-13
1.44791e-10
-5.00484e-13
1.45139e-10
-4.76246e-13
1.45472e-10
-4.56264e-13
1.45793e-10
-4.40496e-13
1.46105e-10
-4.27455e-13
1.46411e-10
-4.1659e-13
1.46712e-10
-4.08859e-13
1.47009e-10
-4.04373e-13
1.47306e-10
-4.02058e-13
1.47601e-10
-4.01311e-13
1.47897e-10
-4.01814e-13
1.48193e-10
-4.02835e-13
1.48492e-10
-4.03935e-13
1.48793e-10
-4.05258e-13
1.49095e-10
-4.06828e-13
1.49397e-10
-4.08026e-13
1.497e-10
-4.07783e-13
1.50002e-10
-4.05641e-13
1.50301e-10
-4.01793e-13
1.50596e-10
-3.95843e-13
1.50885e-10
-3.87003e-13
1.51167e-10
-3.75098e-13
1.51438e-10
-3.60477e-13
1.51696e-10
-3.42872e-13
1.51937e-10
-3.21163e-13
1.5216e-10
-2.94753e-13
1.52359e-10
-2.63623e-13
1.52532e-10
-2.27594e-13
1.52676e-10
-1.86584e-13
1.52786e-10
-1.40347e-13
1.52857e-10
-8.86278e-14
1.52886e-10
-3.12126e-14
1.52868e-10
3.2591e-14
1.52799e-10
1.02892e-13
1.52674e-10
1.79102e-13
1.52487e-10
2.61234e-13
1.52235e-10
3.49856e-13
1.51911e-10
4.45551e-13
1.51513e-10
5.48338e-13
1.51034e-10
6.57538e-13
1.50468e-10
7.73051e-13
1.49813e-10
8.95383e-13
1.49062e-10
1.02443e-12
1.48211e-10
1.16e-12
1.47255e-10
1.30197e-12
1.4619e-10
1.44997e-12
1.4501e-10
1.60426e-12
1.43712e-10
1.76461e-12
1.42292e-10
1.92999e-12
1.40746e-10
2.10031e-12
1.3907e-10
2.2756e-12
1.37262e-10
2.45531e-12
1.35317e-10
2.63923e-12
1.33233e-10
2.82683e-12
1.31009e-10
3.01715e-12
1.28643e-10
3.2099e-12
1.26133e-10
3.40469e-12
1.23478e-10
3.60034e-12
1.20678e-10
3.79632e-12
1.17734e-10
3.99235e-12
1.14647e-10
4.18697e-12
1.11418e-10
4.37912e-12
1.08049e-10
4.56827e-12
1.04544e-10
4.75298e-12
1.00906e-10
4.93219e-12
9.71405e-11
5.10539e-12
9.32537e-11
5.27092e-12
8.92514e-11
5.42698e-12
8.51424e-11
5.57265e-12
8.09357e-11
5.70657e-12
7.66405e-11
5.82658e-12
7.22682e-11
5.93116e-12
6.78321e-11
6.01902e-12
6.33458e-11
6.08766e-12
5.88253e-11
6.13466e-12
5.42884e-11
6.15849e-12
4.97535e-11
6.157e-12
4.52409e-11
6.12743e-12
4.0774e-11
6.06736e-12
3.63772e-11
5.97409e-12
3.20763e-11
5.8443e-12
2.78998e-11
5.67505e-12
2.3879e-11
5.46382e-12
2.00461e-11
5.20758e-12
1.64361e-11
4.9032e-12
1.30868e-11
4.54805e-12
1.00358e-11
4.13987e-12
7.32056e-12
3.67687e-12
4.9796e-12
3.15933e-12
3.04852e-12
2.59087e-12
1.55644e-12
1.97857e-12
5.18414e-13
1.33724e-12
-7.50292e-14
6.99502e-13
-2.7288e-13
1.26888e-13
-1.83755e-13
-2.74614e-13
-3.13591e-13
1.11947e-13
-1.75201e-13
6.00877e-13
5.60858e-14
1.34976e-12
-6.17065e-13
2.61962e-12
-1.80931e-12
4.50967e-12
-3.17115e-12
7.04416e-12
-4.52919e-12
1.02078e-11
-5.8036e-12
1.3958e-11
-6.96306e-12
1.82426e-11
-7.99814e-12
2.30049e-11
-8.9064e-12
2.81813e-11
-9.69509e-12
3.37167e-11
-1.0368e-11
3.95539e-11
-1.09324e-11
4.56402e-11
-1.13961e-11
5.19282e-11
-1.1765e-11
5.8369e-11
-1.20479e-11
6.49219e-11
-1.22496e-11
7.15453e-11
-1.23788e-11
7.82051e-11
-1.24402e-11
8.487e-11
-1.24389e-11
9.1506e-11
-1.23848e-11
9.8089e-11
-1.22802e-11
1.04594e-10
-1.21305e-11
1.10998e-10
-1.19418e-11
1.17284e-10
-1.17167e-11
1.23435e-10
-1.14602e-11
1.29433e-10
-1.11774e-11
1.35269e-10
-1.08708e-11
1.4093e-10
-1.05445e-11
1.46407e-10
-1.02022e-11
1.51693e-10
-9.84533e-12
1.56781e-10
-9.47771e-12
1.61669e-10
-9.10267e-12
1.66353e-10
-8.72154e-12
1.70829e-10
-8.33747e-12
1.75098e-10
-7.95291e-12
1.79161e-10
-7.56857e-12
1.83018e-10
-7.18669e-12
1.86671e-10
-6.80965e-12
1.90125e-10
-6.43814e-12
1.93383e-10
-6.07394e-12
1.96449e-10
-5.7186e-12
1.99328e-10
-5.37234e-12
2.02025e-10
-5.03631e-12
2.04548e-10
-4.71165e-12
2.06902e-10
-4.3994e-12
2.09095e-10
-4.09953e-12
2.11133e-10
-3.81279e-12
2.13024e-10
-3.54003e-12
2.14775e-10
-3.28103e-12
2.16394e-10
-3.03574e-12
2.17889e-10
-2.80515e-12
2.19268e-10
-2.58947e-12
2.20538e-10
-2.38784e-12
2.21708e-10
-2.20026e-12
2.22785e-10
-2.02747e-12
2.23777e-10
-1.86909e-12
2.24692e-10
-1.7244e-12
2.25536e-10
-1.59361e-12
2.26316e-10
-1.47598e-12
2.2704e-10
-1.36987e-12
2.27714e-10
-1.2753e-12
2.28345e-10
-1.19294e-12
2.28938e-10
-1.12179e-12
2.295e-10
-1.06067e-12
2.30035e-10
-1.00961e-12
2.30548e-10
-9.68445e-13
2.31044e-10
-9.35959e-13
2.31528e-10
-9.10762e-13
2.32002e-10
-8.9206e-13
2.3247e-10
-8.79163e-13
2.32936e-10
-8.71148e-13
2.33402e-10
-8.67425e-13
2.33869e-10
-8.67791e-13
2.34338e-10
-8.71409e-13
2.34811e-10
-8.76614e-13
2.3529e-10
-8.82418e-13
2.35773e-10
-8.88636e-13
2.3626e-10
-8.94385e-13
2.36751e-10
-8.98295e-13
2.37245e-10
-8.99662e-13
2.37738e-10
-8.98262e-13
2.38229e-10
-8.93365e-13
2.38716e-10
-8.83376e-13
2.39196e-10
-8.67088e-13
2.39665e-10
-8.44243e-13
2.40119e-10
-8.14424e-13
2.40553e-10
-7.76812e-13
2.40964e-10
-7.30605e-13
2.41346e-10
-6.75288e-13
2.41693e-10
-6.1021e-13
2.41999e-10
-5.34059e-13
2.42259e-10
-4.4622e-13
2.42467e-10
-3.4695e-13
2.42614e-10
-2.35798e-13
2.42695e-10
-1.1195e-13
2.42703e-10
2.53527e-14
2.42629e-10
1.76594e-13
2.42467e-10
3.41461e-13
2.42208e-10
5.20003e-13
2.41845e-10
7.12966e-13
2.41371e-10
9.20631e-13
2.40776e-10
1.14303e-12
2.40053e-10
1.38011e-12
2.39194e-10
1.63163e-12
2.38191e-10
1.89788e-12
2.37037e-10
2.17889e-12
2.35722e-10
2.47398e-12
2.34241e-10
2.78306e-12
2.32585e-10
3.10586e-12
2.30747e-10
3.44162e-12
2.28721e-10
3.78999e-12
2.265e-10
4.15029e-12
2.24078e-10
4.52169e-12
2.2145e-10
4.90389e-12
2.18609e-10
5.29577e-12
2.15552e-10
5.6959e-12
2.12274e-10
6.10375e-12
2.08771e-10
6.51858e-12
2.05042e-10
6.93871e-12
2.01084e-10
7.36264e-12
1.96896e-10
7.78877e-12
1.92478e-10
8.21508e-12
1.8783e-10
8.64031e-12
1.82954e-10
9.06295e-12
1.77852e-10
9.48041e-12
1.72529e-10
9.89065e-12
1.6699e-10
1.02918e-11
1.61242e-10
1.06811e-11
1.55291e-10
1.10558e-11
1.49149e-10
1.14135e-11
1.42824e-10
1.17512e-11
1.36332e-10
1.20656e-11
1.29685e-10
1.23536e-11
1.229e-10
1.26119e-11
1.15996e-10
1.28362e-11
1.08991e-10
1.30227e-11
1.0191e-10
1.31681e-11
9.47773e-11
1.32676e-11
8.76204e-11
1.33163e-11
8.04684e-11
1.33094e-11
7.33542e-11
1.32421e-11
6.63136e-11
1.31087e-11
5.93842e-11
1.29036e-11
5.26065e-11
1.26216e-11
4.60253e-11
1.22566e-11
3.9687e-11
1.18024e-11
3.36406e-11
1.12537e-11
2.79381e-11
1.06057e-11
2.2634e-11
9.85304e-12
1.77824e-11
8.99201e-12
1.3437e-11
8.02199e-12
9.65013e-12
6.946e-12
6.46654e-12
5.77347e-12
3.92104e-12
4.52417e-12
2.03253e-12
3.232e-12
7.89643e-13
1.95481e-12
1.32593e-13
7.9256e-13
-6.7522e-14
-8.50053e-14
-3.79295e-13
2.52137e-13
-4.30685e-13
1.0867e-12
-7.77486e-13
2.49039e-12
-2.02141e-12
4.5833e-12
-3.90191e-12
7.43572e-12
-6.02314e-12
1.10675e-11
-8.16034e-12
1.54615e-11
-1.01969e-11
2.0574e-11
-1.20771e-11
2.63495e-11
-1.37729e-11
3.27209e-11
-1.5279e-11
3.96193e-11
-1.65939e-11
4.69751e-11
-1.7724e-11
5.47186e-11
-1.86775e-11
6.27861e-11
-1.94631e-11
7.11134e-11
-2.00929e-11
7.96434e-11
-2.05757e-11
8.8319e-11
-2.09251e-11
9.70898e-11
-2.11504e-11
1.05911e-10
-2.12598e-11
1.14736e-10
-2.12659e-11
1.23528e-10
-2.11772e-11
1.32251e-10
-2.10023e-11
1.4087e-10
-2.07515e-11
1.4936e-10
-2.04312e-11
1.57692e-10
-2.00495e-11
1.65845e-10
-1.96144e-11
1.73799e-10
-1.91316e-11
1.81536e-10
-1.86079e-11
1.89041e-10
-1.80503e-11
1.96304e-10
-1.74632e-11
2.03312e-10
-1.68528e-11
2.10057e-10
-1.6224e-11
2.16535e-10
-1.55801e-11
2.22741e-10
-1.49264e-11
2.28671e-10
-1.42676e-11
2.34325e-10
-1.36064e-11
2.39704e-10
-1.29464e-11
2.44807e-10
-1.22914e-11
2.4964e-10
-1.16429e-11
2.54206e-10
-1.1004e-11
2.58509e-10
-1.03779e-11
2.62555e-10
-9.76584e-12
2.66353e-10
-9.16994e-12
2.69908e-10
-8.59228e-12
2.73229e-10
-8.03398e-12
2.76326e-10
-7.49593e-12
2.79207e-10
-6.97959e-12
2.81881e-10
-6.48671e-12
2.84359e-10
-6.01757e-12
2.86651e-10
-5.57218e-12
2.88766e-10
-5.15139e-12
2.90716e-10
-4.75585e-12
2.92512e-10
-4.38536e-12
2.94164e-10
-4.0398e-12
2.95683e-10
-3.71939e-12
2.97077e-10
-3.4236e-12
2.9836e-10
-3.15178e-12
2.99541e-10
-2.90411e-12
3.00628e-10
-2.68048e-12
3.01633e-10
-2.47949e-12
3.02565e-10
-2.29997e-12
3.03431e-10
-2.14184e-12
3.04241e-10
-2.00417e-12
3.05004e-10
-1.88503e-12
3.05726e-10
-1.78366e-12
3.06414e-10
-1.69977e-12
3.07077e-10
-1.63173e-12
3.0772e-10
-1.57797e-12
3.08348e-10
-1.53791e-12
3.08967e-10
-1.5103e-12
3.0958e-10
-1.49299e-12
3.10193e-10
-1.48426e-12
3.10809e-10
-1.48316e-12
3.11428e-10
-1.48851e-12
3.12056e-10
-1.49862e-12
3.12692e-10
-1.51188e-12
3.13337e-10
-1.52716e-12
3.13991e-10
-1.54324e-12
3.14654e-10
-1.55803e-12
3.15325e-10
-1.56948e-12
3.16002e-10
-1.57664e-12
3.16682e-10
-1.57862e-12
3.17363e-10
-1.57378e-12
3.18041e-10
-1.56038e-12
3.18712e-10
-1.5371e-12
3.19371e-10
-1.50285e-12
3.20012e-10
-1.45596e-12
3.2063e-10
-1.39482e-12
3.21219e-10
-1.31866e-12
3.21771e-10
-1.22657e-12
3.22279e-10
-1.11731e-12
3.22735e-10
-9.89375e-13
3.23131e-10
-8.4155e-13
3.23457e-10
-6.73415e-13
3.23706e-10
-4.84108e-13
3.23868e-10
-2.7245e-13
3.23932e-10
-3.80017e-14
3.23889e-10
2.19845e-13
3.23727e-10
5.01853e-13
3.23439e-10
8.08415e-13
3.23012e-10
1.14014e-12
3.22435e-10
1.49731e-12
3.21699e-10
1.8797e-12
3.20791e-10
2.28764e-12
3.19702e-10
2.72118e-12
3.1842e-10
3.17988e-12
3.16935e-10
3.66379e-12
3.15235e-10
4.17249e-12
3.13312e-10
4.70538e-12
3.11156e-10
5.26214e-12
3.08755e-10
5.84157e-12
3.06102e-10
6.44238e-12
3.03187e-10
7.06398e-12
3.00003e-10
7.70534e-12
2.96541e-10
8.36495e-12
2.92795e-10
9.04133e-12
2.88758e-10
9.73249e-12
2.84426e-10
1.04364e-11
2.79792e-10
1.11517e-11
2.74854e-10
1.18762e-11
2.69609e-10
1.26069e-11
2.64056e-10
1.33415e-11
2.58194e-10
1.4077e-11
2.52024e-10
1.48101e-11
2.45549e-10
1.55376e-11
2.38772e-10
1.62564e-11
2.317e-10
1.69626e-11
2.24338e-10
1.76525e-11
2.16697e-10
1.83221e-11
2.08787e-10
1.89665e-11
2.0062e-10
1.95806e-11
1.92211e-10
2.01596e-11
1.83578e-10
2.06987e-11
1.74741e-10
2.11916e-11
1.6572e-10
2.16325e-11
1.56541e-10
2.20154e-11
1.47232e-10
2.23332e-11
1.3782e-10
2.2579e-11
1.28341e-10
2.27461e-11
1.18831e-10
2.28267e-11
1.09329e-10
2.28118e-11
9.98775e-11
2.26932e-11
9.05238e-11
2.24628e-11
8.13174e-11
2.21109e-11
7.23105e-11
2.16283e-11
6.35602e-11
2.10065e-11
5.51272e-11
2.02365e-11
4.70733e-11
1.93089e-11
3.94628e-11
1.82162e-11
3.2363e-11
1.6953e-11
2.58411e-11
1.55149e-11
1.99617e-11
1.39021e-11
1.47865e-11
1.21215e-11
1.03681e-11
1.0191e-11
6.74422e-12
8.1436e-12
3.93512e-12
6.03539e-12
1.93521e-12
3.95532e-12
6.97472e-13
2.03963e-12
1.05721e-13
5.04876e-13
-2.73719e-13
3.67636e-13
-7.99267e-13
1.59996e-12
-2.01129e-12
3.65456e-12
-4.0752e-12
6.57417e-12
-6.82138e-12
1.03912e-11
-9.8413e-12
1.51093e-11
-1.28778e-11
2.06996e-11
-1.57884e-11
2.71163e-11
-1.84921e-11
3.42935e-11
-2.09514e-11
4.21618e-11
-2.31462e-11
5.06426e-11
-2.50741e-11
5.96575e-11
-2.67389e-11
6.91298e-11
-2.81493e-11
7.89826e-11
-2.93169e-11
8.9145e-11
-3.0254e-11
9.95456e-11
-3.09774e-11
1.1012e-10
-3.15008e-11
1.2081e-10
-3.18386e-11
1.31558e-10
-3.20068e-11
1.42311e-10
-3.20191e-11
1.53023e-10
-3.18882e-11
1.63649e-10
-3.16293e-11
1.74152e-10
-3.12537e-11
1.84495e-10
-3.07738e-11
1.94647e-10
-3.02018e-11
2.04581e-10
-2.95476e-11
2.14271e-10
-2.88217e-11
2.23696e-10
-2.80342e-11
2.32839e-10
-2.71932e-11
2.41683e-10
-2.63076e-11
2.50216e-10
-2.53866e-11
2.58429e-10
-2.44365e-11
2.66313e-10
-2.34641e-11
2.73862e-10
-2.2477e-11
2.81074e-10
-2.14803e-11
2.87948e-10
-2.04796e-11
2.94482e-10
-1.94811e-11
3.0068e-10
-1.8489e-11
3.06544e-10
-1.75075e-11
3.12081e-10
-1.65406e-11
3.17295e-10
-1.55924e-11
3.22194e-10
-1.46653e-11
3.26788e-10
-1.37627e-11
3.31083e-10
-1.28882e-11
3.35092e-10
-1.20428e-11
3.38825e-10
-1.12283e-11
3.42292e-10
-1.04475e-11
3.45506e-10
-9.70148e-12
3.4848e-10
-8.99102e-12
3.51226e-10
-8.31758e-12
3.53756e-10
-7.68198e-12
3.56084e-10
-7.08416e-12
3.58224e-10
-6.52436e-12
3.60188e-10
-6.00324e-12
3.61988e-10
-5.52059e-12
3.6364e-10
-5.07542e-12
3.65156e-10
-4.66746e-12
3.66547e-10
-4.2964e-12
3.67826e-10
-3.96076e-12
3.69007e-10
-3.65936e-12
3.70099e-10
-3.3918e-12
3.71114e-10
-3.15706e-12
3.72064e-10
-2.95305e-12
3.72958e-10
-2.77799e-12
3.73805e-10
-2.63095e-12
3.74615e-10
-2.5104e-12
3.75396e-10
-2.41371e-12
3.76157e-10
-2.33882e-12
3.76902e-10
-2.28443e-12
3.77641e-10
-2.24863e-12
3.78377e-10
-2.22892e-12
3.79117e-10
-2.22317e-12
3.79862e-10
-2.22943e-12
3.80618e-10
-2.24517e-12
3.81387e-10
-2.26783e-12
3.82171e-10
-2.29548e-12
3.8297e-10
-2.32632e-12
3.83785e-10
-2.35795e-12
3.84616e-10
-2.38766e-12
3.8546e-10
-2.413e-12
3.86314e-10
-2.43215e-12
3.87178e-10
-2.44286e-12
3.88046e-10
-2.44242e-12
3.88915e-10
-2.42879e-12
3.89779e-10
-2.40027e-12
3.90631e-10
-2.35487e-12
3.91467e-10
-2.29027e-12
3.92277e-10
-2.20422e-12
3.93054e-10
-2.09514e-12
3.93789e-10
-1.96123e-12
3.94473e-10
-1.80051e-12
3.95096e-10
-1.61156e-12
3.95648e-10
-1.39283e-12
3.96118e-10
-1.14277e-12
3.96494e-10
-8.59901e-13
3.96764e-10
-5.42727e-13
3.96918e-10
-1.90573e-13
3.9694e-10
1.97086e-13
3.9682e-10
6.21679e-13
3.96544e-10
1.08425e-12
3.96099e-10
1.58519e-12
3.95471e-10
2.12497e-12
3.94647e-10
2.70357e-12
3.93614e-10
3.32107e-12
3.92357e-10
3.97785e-12
3.90865e-10
4.67325e-12
3.89121e-10
5.40671e-12
3.87115e-10
6.17814e-12
3.84833e-10
6.98668e-12
3.82263e-10
7.8312e-12
3.79393e-10
8.71054e-12
3.76212e-10
9.62297e-12
3.72708e-10
1.05669e-11
3.68872e-10
1.1541e-11
3.64693e-10
1.25429e-11
3.60164e-10
1.35699e-11
3.55276e-10
1.46196e-11
3.50024e-10
1.56894e-11
3.444e-10
1.67756e-11
3.38401e-10
1.7875e-11
3.32023e-10
1.89841e-11
3.25265e-10
2.00986e-11
3.18126e-10
2.12144e-11
3.10609e-10
2.2327e-11
3.02716e-10
2.34308e-11
2.94451e-10
2.45205e-11
2.85822e-10
2.55913e-11
2.76838e-10
2.66368e-11
2.67509e-10
2.76505e-11
2.5785e-10
2.86257e-11
2.47876e-10
2.95551e-11
2.37605e-10
3.04305e-11
2.27059e-10
3.12444e-11
2.16262e-10
3.19887e-11
2.05241e-10
3.26537e-11
1.94026e-10
3.32302e-11
1.82651e-10
3.37085e-11
1.71153e-10
3.40781e-11
1.59572e-10
3.43277e-11
1.47951e-10
3.44464e-11
1.3634e-10
3.44225e-11
1.2479e-10
3.42431e-11
1.13357e-10
3.38958e-11
1.021e-10
3.33679e-11
9.10824e-11
3.26464e-11
8.03715e-11
3.17181e-11
7.00373e-11
3.05712e-11
6.01533e-11
2.91941e-11
5.07941e-11
2.75766e-11
4.20359e-11
2.57111e-11
3.39545e-11
2.35952e-11
2.66238e-11
2.12326e-11
2.01133e-11
1.86346e-11
1.44821e-11
1.58261e-11
9.77402e-12
1.28534e-11
6.01464e-12
9.79236e-12
3.20655e-12
6.7594e-12
1.32598e-12
3.92434e-12
2.93575e-13
1.53809e-12
1.92586e-14
5.0726e-13
-1.30418e-12
2.13764e-12
-3.64105e-12
4.82384e-12
-6.76264e-12
8.55125e-12
-1.05483e-11
1.33105e-11
-1.46003e-11
1.90792e-11
-1.86483e-11
2.58189e-11
-2.25269e-11
3.34692e-11
-2.61432e-11
4.19623e-11
-2.94431e-11
5.12179e-11
-3.24014e-11
6.11528e-11
-3.50095e-11
7.16823e-11
-3.72686e-11
8.27206e-11
-3.91882e-11
9.41855e-11
-4.07804e-11
1.05995e-10
-4.20636e-11
1.18072e-10
-4.30553e-11
1.30344e-10
-4.37732e-11
1.42743e-10
-4.42378e-11
1.55205e-10
-4.44691e-11
1.67671e-10
-4.44843e-11
1.80086e-10
-4.43037e-11
1.924e-10
-4.39443e-11
2.0457e-10
-4.34228e-11
2.16553e-10
-4.27571e-11
2.28313e-10
-4.19619e-11
2.39819e-10
-4.10522e-11
2.51039e-10
-4.00429e-11
2.61953e-10
-3.89465e-11
2.72535e-10
-3.77757e-11
2.82769e-10
-3.65429e-11
2.92642e-10
-3.52586e-11
3.0214e-10
-3.39334e-11
3.11253e-10
-3.25779e-11
3.19976e-10
-3.12006e-11
3.28305e-10
-2.98098e-11
3.36238e-10
-2.84135e-11
3.43776e-10
-2.70191e-11
3.5092e-10
-2.56332e-11
3.57675e-10
-2.42622e-11
3.64046e-10
-2.29121e-11
3.7004e-10
-2.15872e-11
3.75667e-10
-2.02923e-11
3.80936e-10
-1.9032e-11
3.85858e-10
-1.781e-11
3.90445e-10
-1.66289e-11
3.94709e-10
-1.54923e-11
3.98664e-10
-1.44028e-11
4.02324e-10
-1.33615e-11
4.05703e-10
-1.23705e-11
4.08817e-10
-1.14318e-11
4.11681e-10
-1.0546e-11
4.1431e-10
-9.71335e-12
4.1672e-10
-8.93467e-12
4.18927e-10
-8.21013e-12
4.20945e-10
-7.5391e-12
4.22792e-10
-6.9213e-12
4.24481e-10
-6.35668e-12
4.26028e-10
-5.84385e-12
4.27448e-10
-5.38067e-12
4.28756e-10
-4.96632e-12
4.29963e-10
-4.59988e-12
4.31084e-10
-4.27892e-12
4.32133e-10
-4.00107e-12
4.3312e-10
-3.76477e-12
4.34056e-10
-3.568e-12
4.34954e-10
-3.40806e-12
4.35824e-10
-3.28224e-12
4.36672e-10
-3.18797e-12
4.37509e-10
-3.12237e-12
4.38343e-10
-3.08225e-12
4.39179e-10
-3.06484e-12
4.40024e-10
-3.06762e-12
4.40881e-10
-3.08739e-12
4.41756e-10
-3.12039e-12
4.42652e-10
-3.16344e-12
4.4357e-10
-3.21398e-12
4.44512e-10
-3.26874e-12
4.45478e-10
-3.32385e-12
4.46467e-10
-3.37613e-12
4.47478e-10
-3.42292e-12
4.48506e-10
-3.46112e-12
4.49551e-10
-3.48715e-12
4.50606e-10
-3.49748e-12
4.51667e-10
-3.48941e-12
4.52726e-10
-3.46012e-12
4.53778e-10
-3.40635e-12
4.54814e-10
-3.32535e-12
4.55825e-10
-3.21463e-12
4.56802e-10
-3.07149e-12
4.57734e-10
-2.89304e-12
4.58611e-10
-2.67652e-12
4.5942e-10
-2.42004e-12
4.6015e-10
-2.12177e-12
4.60786e-10
-1.77915e-12
4.61317e-10
-1.39007e-12
4.61727e-10
-9.52857e-13
4.62002e-10
-4.66065e-13
4.62128e-10
7.13556e-14
4.62088e-10
6.60883e-13
4.61869e-10
1.30405e-12
4.61453e-10
2.00127e-12
4.60825e-10
2.75297e-12
4.59968e-10
3.55978e-12
4.58868e-10
4.4216e-12
4.57507e-10
5.33846e-12
4.55871e-10
6.3101e-12
4.53942e-10
7.33556e-12
4.51705e-10
8.41428e-12
4.49146e-10
9.54545e-12
4.46249e-10
1.07271e-11
4.43001e-10
1.19575e-11
4.39388e-10
1.32351e-11
4.35397e-10
1.45574e-11
4.31016e-10
1.59217e-11
4.26233e-10
1.73249e-11
4.2104e-10
1.87635e-11
4.15425e-10
2.02337e-11
4.09382e-10
2.1732e-11
4.02905e-10
2.32537e-11
3.95986e-10
2.47934e-11
3.88623e-10
2.63463e-11
3.80814e-10
2.79069e-11
3.72559e-10
2.94688e-11
3.6386e-10
3.10256e-11
3.54719e-10
3.25707e-11
3.45143e-10
3.40961e-11
3.35141e-10
3.55939e-11
3.24722e-10
3.70561e-11
3.13899e-10
3.84732e-11
3.0269e-10
3.98354e-11
2.91111e-10
4.11333e-11
2.79186e-10
4.23561e-11
2.66939e-10
4.34921e-11
2.54398e-10
4.45298e-11
2.41594e-10
4.54571e-11
2.28564e-10
4.62607e-11
2.15346e-10
4.69268e-11
2.01983e-10
4.74414e-11
1.88521e-10
4.77894e-11
1.75013e-10
4.7955e-11
1.61512e-10
4.79225e-11
1.48078e-10
4.76759e-11
1.34776e-10
4.71982e-11
1.21672e-10
4.64719e-11
1.08839e-10
4.54802e-11
9.63511e-11
4.42067e-11
8.42881e-11
4.26355e-11
7.27306e-11
4.07522e-11
6.17619e-11
3.85452e-11
5.14667e-11
3.60066e-11
4.19278e-11
3.31338e-11
3.32244e-11
2.99335e-11
2.54329e-11
2.64244e-11
1.86208e-11
2.26401e-11
1.2841e-11
1.86368e-11
8.12953e-12
1.45055e-11
4.50302e-12
1.03831e-11
1.96359e-12
6.46441e-12
4.7864e-13
3.02341e-12
4.97222e-13
6.55282e-13
-1.96138e-12
2.67467e-12
-5.66095e-12
5.96615e-12
-1.00541e-11
1.04656e-11
-1.50467e-11
1.61249e-11
-2.0261e-11
2.28981e-11
-2.54207e-11
3.07248e-11
-3.03548e-11
3.95377e-11
-3.49556e-11
4.92569e-11
-3.91619e-11
5.97959e-11
-4.29414e-11
7.10664e-11
-4.62802e-11
8.29764e-11
-4.91791e-11
9.54353e-11
-5.16458e-11
1.08352e-10
-5.36969e-11
1.2164e-10
-5.53517e-11
1.35216e-10
-5.66307e-11
1.49001e-10
-5.75576e-11
1.62919e-10
-5.81567e-11
1.76901e-10
-5.84507e-11
1.90882e-10
-5.84653e-11
2.04801e-10
-5.82231e-11
2.18604e-10
-5.77467e-11
2.3224e-10
-5.70593e-11
2.45664e-10
-5.61813e-11
2.58835e-10
-5.51329e-11
2.71716e-10
-5.39342e-11
2.84277e-10
-5.2603e-11
2.96488e-10
-5.11569e-11
3.08325e-10
-4.96134e-11
3.19769e-10
-4.79872e-11
3.30803e-10
-4.62923e-11
3.41412e-10
-4.45436e-11
3.51588e-10
-4.27539e-11
3.61323e-10
-4.09349e-11
3.70611e-10
-3.90981e-11
3.79452e-10
-3.72543e-11
3.87844e-10
-3.54124e-11
3.95793e-10
-3.35814e-11
4.033e-10
-3.17705e-11
4.10374e-10
-2.99862e-11
4.17023e-10
-2.82354e-11
4.23255e-10
-2.65253e-11
4.29083e-10
-2.48606e-11
4.3452e-10
-2.32459e-11
4.39577e-10
-2.16863e-11
4.4427e-10
-2.01861e-11
4.48616e-10
-1.87477e-11
4.52629e-10
-1.7374e-11
4.56325e-10
-1.60676e-11
4.59723e-10
-1.48302e-11
4.6284e-10
-1.36629e-11
4.65694e-10
-1.25671e-11
4.68302e-10
-1.15433e-11
4.70683e-10
-1.05912e-11
4.72854e-10
-9.71061e-12
4.74834e-10
-8.90127e-12
4.76639e-10
-8.16228e-12
4.78287e-10
-7.49188e-12
4.79796e-10
-6.88853e-12
4.8118e-10
-6.35093e-12
4.82457e-10
-5.8767e-12
4.83642e-10
-5.46287e-12
4.84748e-10
-5.10722e-12
4.8579e-10
-4.80733e-12
4.86781e-10
-4.55962e-12
4.87734e-10
-4.36066e-12
4.8866e-10
-4.20761e-12
4.89568e-10
-4.09698e-12
4.9047e-10
-4.02451e-12
4.91374e-10
-3.98617e-12
4.92288e-10
-3.97842e-12
4.93217e-10
-3.99743e-12
4.94169e-10
-4.03868e-12
4.95146e-10
-4.09775e-12
4.96154e-10
-4.17083e-12
4.97194e-10
-4.25396e-12
4.98267e-10
-4.34238e-12
4.99375e-10
-4.43122e-12
5.00515e-10
-4.51657e-12
5.01687e-10
-4.59457e-12
5.02886e-10
-4.66059e-12
5.04109e-10
-4.71017e-12
5.05352e-10
-4.73926e-12
5.06606e-10
-4.74395e-12
5.07866e-10
-4.72006e-12
5.09123e-10
-4.66327e-12
5.10368e-10
-4.57005e-12
5.11591e-10
-4.43716e-12
5.12781e-10
-4.26073e-12
5.13926e-10
-4.03704e-12
5.15013e-10
-3.76286e-12
5.16028e-10
-3.4352e-12
5.16958e-10
-3.05132e-12
5.17787e-10
-2.60812e-12
5.18501e-10
-2.10288e-12
5.19081e-10
-1.53365e-12
5.19513e-10
-8.98285e-13
5.19778e-10
-1.94632e-13
5.1986e-10
5.78827e-13
5.19741e-10
1.42358e-12
5.19402e-10
2.34061e-12
5.18825e-10
3.33029e-12
5.17991e-10
4.39346e-12
5.16883e-10
5.53037e-12
5.15481e-10
6.74045e-12
5.13767e-10
8.02351e-12
5.11723e-10
9.37894e-12
5.09332e-10
1.08054e-11
5.06575e-10
1.23013e-11
5.03437e-10
1.38649e-11
4.999e-10
1.54935e-11
4.9595e-10
1.71847e-11
4.91571e-10
1.89359e-11
4.86749e-10
2.07429e-11
4.81473e-10
2.26013e-11
4.75729e-10
2.45071e-11
4.69508e-10
2.6455e-11
4.62801e-10
2.84394e-11
4.55599e-10
3.0455e-11
4.47897e-10
3.24949e-11
4.39691e-10
3.4552e-11
4.30978e-10
3.6619e-11
4.21759e-10
3.8688e-11
4.12035e-10
4.07496e-11
4.0181e-10
4.27951e-11
3.91091e-10
4.48148e-11
3.79888e-10
4.67978e-11
3.68212e-10
4.87325e-11
3.56078e-10
5.06072e-11
3.43504e-10
5.24092e-11
3.30512e-10
5.41252e-11
3.17126e-10
5.57416e-11
3.03375e-10
5.72437e-11
2.8929e-10
5.86155e-11
2.74906e-10
5.98406e-11
2.60264e-10
6.09026e-11
2.45408e-10
6.17835e-11
2.30385e-10
6.24645e-11
2.15248e-10
6.29264e-11
2.00053e-10
6.31496e-11
1.84862e-10
6.31135e-11
1.6974e-10
6.27972e-11
1.54758e-10
6.21796e-11
1.39991e-10
6.12395e-11
1.25517e-10
5.99552e-11
1.11418e-10
5.83062e-11
9.77797e-11
5.6274e-11
8.46899e-11
5.38419e-11
7.22387e-11
5.09961e-11
6.05168e-11
4.77282e-11
4.96142e-11
4.40371e-11
3.96168e-11
3.99314e-11
3.06061e-11
3.54343e-11
2.2657e-11
3.0588e-11
1.5835e-11
2.54597e-11
1.01916e-11
2.01507e-11
5.76298e-12
1.48105e-11
2.57884e-12
9.6479e-12
6.5344e-13
4.94831e-12
1.15008e-12
8.0135e-13
-2.76062e-12
3.19181e-12
-8.0531e-12
7.05178e-12
-1.39151e-11
1.2276e-11
-2.0272e-11
1.8785e-11
-2.67682e-11
2.65013e-11
-3.31378e-11
3.53493e-11
-3.92025e-11
4.52462e-11
-4.48518e-11
5.61025e-11
-5.00182e-11
6.7825e-11
-5.46641e-11
8.0318e-11
-5.87738e-11
9.3485e-11
-6.23449e-11
1.07228e-10
-6.53886e-11
1.21451e-10
-6.79216e-11
1.36064e-10
-6.99644e-11
1.50977e-10
-7.15433e-11
1.66105e-10
-7.26864e-11
1.81369e-10
-7.342e-11
1.96692e-10
-7.37749e-11
2.12006e-10
-7.37798e-11
2.27246e-10
-7.34626e-11
2.42352e-10
-7.28527e-11
2.57269e-10
-7.19766e-11
2.71949e-10
-7.08605e-11
2.86346e-10
-6.95304e-11
3.00422e-10
-6.80098e-11
3.14141e-10
-6.63216e-11
3.27471e-10
-6.44884e-11
3.40389e-10
-6.2531e-11
3.52871e-10
-6.04685e-11
3.64899e-10
-5.83197e-11
3.76457e-10
-5.61026e-11
3.87535e-10
-5.38326e-11
3.98126e-10
-5.15252e-11
4.08222e-10
-4.91954e-11
4.17824e-10
-4.68559e-11
4.26931e-10
-4.4519e-11
4.35546e-10
-4.21968e-11
4.43674e-10
-3.98992e-11
4.51323e-10
-3.76353e-11
4.58502e-10
-3.5415e-11
4.65223e-10
-3.3246e-11
4.71497e-10
-3.11346e-11
4.77338e-10
-2.90874e-11
4.82762e-10
-2.7111e-11
4.87785e-10
-2.52095e-11
4.92425e-10
-2.3387e-11
4.96699e-10
-2.16478e-11
5.00625e-10
-1.99947e-11
5.04224e-10
-1.84294e-11
5.07516e-10
-1.69541e-11
5.10519e-10
-1.55703e-11
5.13253e-10
-1.42784e-11
5.1574e-10
-1.30782e-11
5.18e-10
-1.19701e-11
5.20051e-10
-1.09533e-11
5.21915e-10
-1.0026e-11
5.2361e-10
-9.18657e-12
5.25155e-10
-8.43362e-12
5.26568e-10
-7.76475e-12
5.27868e-10
-7.17672e-12
5.29073e-10
-6.66638e-12
5.30196e-10
-6.23091e-12
5.31256e-10
-5.86681e-12
5.32266e-10
-5.56964e-12
5.3324e-10
-5.33509e-12
5.34191e-10
-5.15925e-12
5.35132e-10
-5.03748e-12
5.36073e-10
-4.96474e-12
5.37023e-10
-4.93626e-12
5.37992e-10
-4.94718e-12
5.38986e-10
-4.99208e-12
5.40013e-10
-5.06536e-12
5.41077e-10
-5.16181e-12
5.42182e-10
-5.27636e-12
5.43331e-10
-5.40336e-12
5.44527e-10
-5.53691e-12
5.45767e-10
-5.67149e-12
5.47053e-10
-5.80189e-12
5.4838e-10
-5.92261e-12
5.49747e-10
-6.02768e-12
5.51149e-10
-6.11161e-12
5.52579e-10
-6.16944e-12