/*--------------------------------*- C++ -*----------------------------------*\
  =========                 |
  \\      /  F ield         | OpenFOAM: The Open Source CFD Toolbox
   \\    /   O peration     | Website:  https://openfoam.org
    \\  /    A nd           | Version:  7
     \\/     M anipulation  |
\*---------------------------------------------------------------------------*/
FoamFile
{
    version     2.0;
    format      ascii;
    class       volVectorField;
    location    "0.475";
    object      U;
}
// * * * * * * * * * * * * * * * * * * * * * * * * * * * * * * * * * * * * * //

dimensions      [0 1 -1 0 0 0 0];

internalField   nonuniform List<vector> 
51200
(
(4.63511e-08 7.01621e-08 0)
(-5.38009e-08 9.99199e-08 0)
(-9.13566e-08 4.4888e-08 0)
(-1.41488e-07 1.86209e-08 0)
(-1.09947e-07 -3.27651e-09 0)
(-4.1742e-08 -1.93416e-08 0)
(5.84873e-08 -3.15173e-08 0)
(1.86097e-07 -4.04986e-08 0)
(3.37111e-07 -4.81902e-08 0)
(5.07949e-07 -5.4163e-08 0)
(6.95821e-07 -5.92124e-08 0)
(8.97636e-07 -6.31998e-08 0)
(1.11153e-06 -6.61663e-08 0)
(1.33498e-06 -6.86112e-08 0)
(1.56607e-06 -7.06394e-08 0)
(1.80326e-06 -7.20067e-08 0)
(2.04455e-06 -7.2927e-08 0)
(2.28857e-06 -7.34083e-08 0)
(2.53414e-06 -7.33336e-08 0)
(2.77973e-06 -7.31991e-08 0)
(3.02432e-06 -7.2841e-08 0)
(3.26723e-06 -7.19488e-08 0)
(3.50719e-06 -7.09944e-08 0)
(3.74346e-06 -6.98961e-08 0)
(3.97571e-06 -6.85191e-08 0)
(4.20297e-06 -6.69807e-08 0)
(4.42464e-06 -6.52525e-08 0)
(4.64048e-06 -6.33286e-08 0)
(4.84997e-06 -6.12542e-08 0)
(5.05278e-06 -5.9154e-08 0)
(5.24868e-06 -5.71214e-08 0)
(5.4375e-06 -5.49725e-08 0)
(5.61905e-06 -5.26569e-08 0)
(5.79303e-06 -5.04094e-08 0)
(5.95949e-06 -4.82538e-08 0)
(6.11861e-06 -4.6097e-08 0)
(6.27021e-06 -4.40022e-08 0)
(6.41423e-06 -4.19242e-08 0)
(6.55095e-06 -3.97343e-08 0)
(6.68047e-06 -3.75038e-08 0)
(6.80279e-06 -3.53375e-08 0)
(6.91817e-06 -3.32972e-08 0)
(7.02686e-06 -3.13852e-08 0)
(7.12894e-06 -2.94901e-08 0)
(7.22464e-06 -2.75945e-08 0)
(7.31418e-06 -2.58143e-08 0)
(7.39776e-06 -2.41562e-08 0)
(7.47572e-06 -2.24987e-08 0)
(7.54832e-06 -2.08946e-08 0)
(7.61568e-06 -1.94411e-08 0)
(7.67814e-06 -1.81378e-08 0)
(7.73604e-06 -1.68777e-08 0)
(7.78963e-06 -1.56023e-08 0)
(7.83913e-06 -1.44008e-08 0)
(7.88484e-06 -1.33227e-08 0)
(7.92709e-06 -1.2321e-08 0)
(7.96617e-06 -1.13927e-08 0)
(8.00225e-06 -1.05628e-08 0)
(8.03563e-06 -9.81398e-09 0)
(8.06663e-06 -9.13554e-09 0)
(8.09544e-06 -8.5318e-09 0)
(8.12222e-06 -7.96744e-09 0)
(8.14722e-06 -7.43007e-09 0)
(8.17063e-06 -6.98384e-09 0)
(8.19264e-06 -6.63407e-09 0)
(8.21351e-06 -6.28392e-09 0)
(8.23348e-06 -5.92512e-09 0)
(8.25265e-06 -5.65073e-09 0)
(8.27113e-06 -5.47481e-09 0)
(8.28916e-06 -5.34364e-09 0)
(8.30688e-06 -5.2437e-09 0)
(8.32425e-06 -5.17636e-09 0)
(8.3413e-06 -5.11506e-09 0)
(8.3582e-06 -5.0351e-09 0)
(8.37506e-06 -4.95158e-09 0)
(8.39189e-06 -4.90362e-09 0)
(8.40873e-06 -4.89126e-09 0)
(8.42561e-06 -4.87974e-09 0)
(8.44251e-06 -4.85985e-09 0)
(8.45936e-06 -4.81603e-09 0)
(8.47613e-06 -4.70905e-09 0)
(8.49282e-06 -4.56131e-09 0)
(8.50938e-06 -4.44815e-09 0)
(8.52567e-06 -4.39131e-09 0)
(8.54159e-06 -4.32206e-09 0)
(8.55708e-06 -4.16501e-09 0)
(8.572e-06 -3.92709e-09 0)
(8.58614e-06 -3.64692e-09 0)
(8.59936e-06 -3.32827e-09 0)
(8.61155e-06 -2.95915e-09 0)
(8.62256e-06 -2.53626e-09 0)
(8.63213e-06 -2.073e-09 0)
(8.64005e-06 -1.55751e-09 0)
(8.64607e-06 -9.60986e-10 0)
(8.65003e-06 -3.05032e-10 0)
(8.65171e-06 4.00206e-10 0)
(8.65085e-06 1.18768e-09 0)
(8.64722e-06 2.06838e-09 0)
(8.64051e-06 3.02319e-09 0)
(8.63044e-06 4.03104e-09 0)
(8.61673e-06 5.11558e-09 0)
(8.59911e-06 6.3142e-09 0)
(8.57738e-06 7.59925e-09 0)
(8.55124e-06 8.93843e-09 0)
(8.52036e-06 1.0341e-08 0)
(8.4845e-06 1.18095e-08 0)
(8.44342e-06 1.33555e-08 0)
(8.39682e-06 1.49945e-08 0)
(8.34446e-06 1.67139e-08 0)
(8.28602e-06 1.85374e-08 0)
(8.22121e-06 2.04744e-08 0)
(8.14989e-06 2.24453e-08 0)
(8.07182e-06 2.44222e-08 0)
(7.98671e-06 2.64487e-08 0)
(7.89442e-06 2.85491e-08 0)
(7.7947e-06 3.07537e-08 0)
(7.68736e-06 3.30368e-08 0)
(7.5723e-06 3.53142e-08 0)
(7.44933e-06 3.75963e-08 0)
(7.31829e-06 3.99421e-08 0)
(7.1792e-06 4.23345e-08 0)
(7.03195e-06 4.47484e-08 0)
(6.8765e-06 4.71723e-08 0)
(6.71292e-06 4.9549e-08 0)
(6.54123e-06 5.188e-08 0)
(6.3614e-06 5.42342e-08 0)
(6.1736e-06 5.65949e-08 0)
(5.9779e-06 5.89236e-08 0)
(5.77441e-06 6.12135e-08 0)
(5.56351e-06 6.33857e-08 0)
(5.34553e-06 6.53905e-08 0)
(5.12072e-06 6.7289e-08 0)
(4.88954e-06 6.91013e-08 0)
(4.65249e-06 7.07918e-08 0)
(4.41001e-06 7.23737e-08 0)
(4.16269e-06 7.3837e-08 0)
(3.91123e-06 7.5067e-08 0)
(3.65631e-06 7.5971e-08 0)
(3.3988e-06 7.65715e-08 0)
(3.13969e-06 7.69084e-08 0)
(2.87998e-06 7.69861e-08 0)
(2.62074e-06 7.67695e-08 0)
(2.3633e-06 7.61566e-08 0)
(2.10903e-06 7.50758e-08 0)
(1.85925e-06 7.35453e-08 0)
(1.61559e-06 7.15315e-08 0)
(1.37985e-06 6.89157e-08 0)
(1.15388e-06 6.56412e-08 0)
(9.39712e-07 6.171e-08 0)
(7.39693e-07 5.706e-08 0)
(5.56158e-07 5.15879e-08 0)
(3.91529e-07 4.52097e-08 0)
(2.48525e-07 3.7857e-08 0)
(1.29885e-07 2.94766e-08 0)
(3.80768e-08 2.00666e-08 0)
(-2.48096e-08 9.8087e-09 0)
(-5.74287e-08 -7.43568e-10 0)
(-6.03697e-08 -1.0325e-08 0)
(-3.99038e-08 -1.61457e-08 0)
(-1.25675e-08 -1.19309e-08 0)
(6.91332e-08 1.90654e-08 0)
(6.17421e-08 1.34961e-07 0)
(2.37292e-08 5.83612e-08 0)
(5.33738e-08 -1.5488e-08 0)
(1.69471e-07 -9.19073e-08 0)
(3.6699e-07 -1.60155e-07 0)
(6.41563e-07 -2.18974e-07 0)
(9.85435e-07 -2.69498e-07 0)
(1.39142e-06 -3.1261e-07 0)
(1.85221e-06 -3.49582e-07 0)
(2.35991e-06 -3.81053e-07 0)
(2.9085e-06 -4.07228e-07 0)
(3.49084e-06 -4.28875e-07 0)
(4.10139e-06 -4.46353e-07 0)
(4.73504e-06 -4.60037e-07 0)
(5.3862e-06 -4.70422e-07 0)
(6.05056e-06 -4.77706e-07 0)
(6.72402e-06 -4.81917e-07 0)
(7.40224e-06 -4.83692e-07 0)
(8.08204e-06 -4.83273e-07 0)
(8.7606e-06 -4.80564e-07 0)
(9.43433e-06 -4.7604e-07 0)
(1.01009e-05 -4.69937e-07 0)
(1.07583e-05 -4.62215e-07 0)
(1.14042e-05 -4.53224e-07 0)
(1.20369e-05 -4.43176e-07 0)
(1.26549e-05 -4.32048e-07 0)
(1.32566e-05 -4.20003e-07 0)
(1.38409e-05 -4.07153e-07 0)
(1.44069e-05 -3.93776e-07 0)
(1.49538e-05 -3.79987e-07 0)
(1.5481e-05 -3.65722e-07 0)
(1.59879e-05 -3.51202e-07 0)
(1.64741e-05 -3.36555e-07 0)
(1.69395e-05 -3.21661e-07 0)
(1.73839e-05 -3.06772e-07 0)
(1.78074e-05 -2.92154e-07 0)
(1.821e-05 -2.77646e-07 0)
(1.85919e-05 -2.63196e-07 0)
(1.89535e-05 -2.48983e-07 0)
(1.9295e-05 -2.35023e-07 0)
(1.9617e-05 -2.2138e-07 0)
(1.99198e-05 -2.08187e-07 0)
(2.0204e-05 -1.95348e-07 0)
(2.04703e-05 -1.82912e-07 0)
(2.07193e-05 -1.71013e-07 0)
(2.09515e-05 -1.59582e-07 0)
(2.11678e-05 -1.48514e-07 0)
(2.1369e-05 -1.37995e-07 0)
(2.15555e-05 -1.28108e-07 0)
(2.17284e-05 -1.18796e-07 0)
(2.18884e-05 -1.09989e-07 0)
(2.20362e-05 -1.01693e-07 0)
(2.21725e-05 -9.39785e-08 0)
(2.22983e-05 -8.68024e-08 0)
(2.24144e-05 -8.01166e-08 0)
(2.25214e-05 -7.39882e-08 0)
(2.26201e-05 -6.84073e-08 0)
(2.27112e-05 -6.32963e-08 0)
(2.27955e-05 -5.8674e-08 0)
(2.28736e-05 -5.45542e-08 0)
(2.29464e-05 -5.08492e-08 0)
(2.30144e-05 -4.75619e-08 0)
(2.30781e-05 -4.47755e-08 0)
(2.31381e-05 -4.23965e-08 0)
(2.31951e-05 -4.02602e-08 0)
(2.32495e-05 -3.84355e-08 0)
(2.33017e-05 -3.70282e-08 0)
(2.33522e-05 -3.59068e-08 0)
(2.34015e-05 -3.49588e-08 0)
(2.34499e-05 -3.42772e-08 0)
(2.34978e-05 -3.38842e-08 0)
(2.35452e-05 -3.36334e-08 0)
(2.35925e-05 -3.34428e-08 0)
(2.36398e-05 -3.33271e-08 0)
(2.36871e-05 -3.32799e-08 0)
(2.37347e-05 -3.32805e-08 0)
(2.37828e-05 -3.33193e-08 0)
(2.3831e-05 -3.33889e-08 0)
(2.38793e-05 -3.34211e-08 0)
(2.39278e-05 -3.32745e-08 0)
(2.39762e-05 -3.29164e-08 0)
(2.40244e-05 -3.24555e-08 0)
(2.40719e-05 -3.19164e-08 0)
(2.41187e-05 -3.11808e-08 0)
(2.41645e-05 -3.01565e-08 0)
(2.42089e-05 -2.88711e-08 0)
(2.42513e-05 -2.73313e-08 0)
(2.42914e-05 -2.54468e-08 0)
(2.43286e-05 -2.31656e-08 0)
(2.43625e-05 -2.0499e-08 0)
(2.43924e-05 -1.74676e-08 0)
(2.44179e-05 -1.4051e-08 0)
(2.44384e-05 -1.01747e-08 0)
(2.44531e-05 -5.83928e-09 0)
(2.44612e-05 -1.05914e-09 0)
(2.44622e-05 4.2412e-09 0)
(2.44555e-05 1.00858e-08 0)
(2.44401e-05 1.64307e-08 0)
(2.44154e-05 2.32551e-08 0)
(2.43804e-05 3.06012e-08 0)
(2.43345e-05 3.85525e-08 0)
(2.4277e-05 4.70956e-08 0)
(2.4207e-05 5.61404e-08 0)
(2.41236e-05 6.5685e-08 0)
(2.40262e-05 7.5773e-08 0)
(2.39138e-05 8.64148e-08 0)
(2.37859e-05 9.76242e-08 0)
(2.36415e-05 1.09362e-07 0)
(2.348e-05 1.21601e-07 0)
(2.33005e-05 1.34391e-07 0)
(2.31025e-05 1.47665e-07 0)
(2.28853e-05 1.61315e-07 0)
(2.26481e-05 1.7536e-07 0)
(2.23905e-05 1.89811e-07 0)
(2.21119e-05 2.04667e-07 0)
(2.18117e-05 2.19912e-07 0)
(2.14895e-05 2.35419e-07 0)
(2.1145e-05 2.51106e-07 0)
(2.07778e-05 2.6702e-07 0)
(2.03877e-05 2.8314e-07 0)
(1.99745e-05 2.9936e-07 0)
(1.95382e-05 3.15629e-07 0)
(1.90786e-05 3.31862e-07 0)
(1.85961e-05 3.47934e-07 0)
(1.80908e-05 3.63836e-07 0)
(1.75628e-05 3.79521e-07 0)
(1.70128e-05 3.94858e-07 0)
(1.64411e-05 4.09801e-07 0)
(1.58486e-05 4.24252e-07 0)
(1.52362e-05 4.38006e-07 0)
(1.46048e-05 4.50967e-07 0)
(1.39556e-05 4.63091e-07 0)
(1.32899e-05 4.74254e-07 0)
(1.26093e-05 4.84317e-07 0)
(1.19155e-05 4.93174e-07 0)
(1.12103e-05 5.00647e-07 0)
(1.04959e-05 5.06479e-07 0)
(9.77469e-06 5.10492e-07 0)
(9.04938e-06 5.12587e-07 0)
(8.32285e-06 5.12609e-07 0)
(7.5982e-06 5.10345e-07 0)
(6.87893e-06 5.05535e-07 0)
(6.16885e-06 4.97893e-07 0)
(5.47196e-06 4.87182e-07 0)
(4.7926e-06 4.73176e-07 0)
(4.13556e-06 4.55581e-07 0)
(3.50594e-06 4.34099e-07 0)
(2.90915e-06 4.08476e-07 0)
(2.35099e-06 3.78433e-07 0)
(1.83749e-06 3.43691e-07 0)
(1.37473e-06 3.04038e-07 0)
(9.68863e-07 2.59373e-07 0)
(6.25913e-07 2.0983e-07 0)
(3.5122e-07 1.55892e-07 0)
(1.4863e-07 9.88717e-08 0)
(1.91577e-08 4.18062e-08 0)
(-4.10269e-08 -9.30931e-09 0)
(-4.49658e-08 -4.3295e-08 0)
(-1.74998e-08 -3.85756e-08 0)
(2.77027e-08 1.33109e-08 0)
(5.91395e-08 7.02918e-08 0)
(1.46526e-07 -5.54764e-09 0)
(2.97171e-07 -1.50589e-07 0)
(5.45047e-07 -3.15058e-07 0)
(8.9863e-07 -4.75355e-07 0)
(1.35551e-06 -6.23199e-07 0)
(1.91064e-06 -7.55516e-07 0)
(2.55591e-06 -8.72051e-07 0)
(3.28172e-06 -9.73911e-07 0)
(4.07951e-06 -1.0613e-06 0)
(4.9387e-06 -1.1358e-06 0)
(5.85053e-06 -1.198e-06 0)
(6.80658e-06 -1.24853e-06 0)
(7.79829e-06 -1.28892e-06 0)
(8.81831e-06 -1.31965e-06 0)
(9.85967e-06 -1.34131e-06 0)
(1.09152e-05 -1.35516e-06 0)
(1.19791e-05 -1.36161e-06 0)
(1.30465e-05 -1.36112e-06 0)
(1.41116e-05 -1.35485e-06 0)
(1.51701e-05 -1.34324e-06 0)
(1.62182e-05 -1.32651e-06 0)
(1.72517e-05 -1.30557e-06 0)
(1.82676e-05 -1.28081e-06 0)
(1.92632e-05 -1.25255e-06 0)
(2.02357e-05 -1.22153e-06 0)
(2.11829e-05 -1.188e-06 0)
(2.2103e-05 -1.15219e-06 0)
(2.29943e-05 -1.1147e-06 0)
(2.38556e-05 -1.07572e-06 0)
(2.46858e-05 -1.03552e-06 0)
(2.54841e-05 -9.94586e-07 0)
(2.62498e-05 -9.53033e-07 0)
(2.69827e-05 -9.1103e-07 0)
(2.76823e-05 -8.68996e-07 0)
(2.83488e-05 -8.27111e-07 0)
(2.89823e-05 -7.85515e-07 0)
(2.95831e-05 -7.44485e-07 0)
(3.01516e-05 -7.04101e-07 0)
(3.06884e-05 -6.64447e-07 0)
(3.1194e-05 -6.25749e-07 0)
(3.16694e-05 -5.88093e-07 0)
(3.21153e-05 -5.5148e-07 0)
(3.25327e-05 -5.16115e-07 0)
(3.29225e-05 -4.82168e-07 0)
(3.3286e-05 -4.49534e-07 0)
(3.36243e-05 -4.18243e-07 0)
(3.39383e-05 -3.88473e-07 0)
(3.42293e-05 -3.60241e-07 0)
(3.44985e-05 -3.33518e-07 0)
(3.47474e-05 -3.08372e-07 0)
(3.4977e-05 -2.8485e-07 0)
(3.51886e-05 -2.62889e-07 0)
(3.53835e-05 -2.42446e-07 0)
(3.5563e-05 -2.23586e-07 0)
(3.57282e-05 -2.06287e-07 0)
(3.58805e-05 -1.90443e-07 0)
(3.60209e-05 -1.76071e-07 0)
(3.61505e-05 -1.63139e-07 0)
(3.62705e-05 -1.51466e-07 0)
(3.63822e-05 -1.4102e-07 0)
(3.64863e-05 -1.31917e-07 0)
(3.65839e-05 -1.24103e-07 0)
(3.66761e-05 -1.17386e-07 0)
(3.67637e-05 -1.11681e-07 0)
(3.68474e-05 -1.07022e-07 0)
(3.6928e-05 -1.03334e-07 0)
(3.70062e-05 -1.00405e-07 0)
(3.70827e-05 -9.81135e-08 0)
(3.71579e-05 -9.64699e-08 0)
(3.72326e-05 -9.54254e-08 0)
(3.7307e-05 -9.48697e-08 0)
(3.73815e-05 -9.47412e-08 0)
(3.74563e-05 -9.49409e-08 0)
(3.75317e-05 -9.52773e-08 0)
(3.76079e-05 -9.56504e-08 0)
(3.76849e-05 -9.60882e-08 0)
(3.77625e-05 -9.65441e-08 0)
(3.78407e-05 -9.68456e-08 0)
(3.79196e-05 -9.68286e-08 0)
(3.79986e-05 -9.64407e-08 0)
(3.80775e-05 -9.56639e-08 0)
(3.81559e-05 -9.43661e-08 0)
(3.82333e-05 -9.23973e-08 0)
(3.83094e-05 -8.97153e-08 0)
(3.83834e-05 -8.63094e-08 0)
(3.84546e-05 -8.21003e-08 0)
(3.85225e-05 -7.69499e-08 0)
(3.85861e-05 -7.0783e-08 0)
(3.86445e-05 -6.35487e-08 0)
(3.8697e-05 -5.51212e-08 0)
(3.87426e-05 -4.54436e-08 0)
(3.87803e-05 -3.45289e-08 0)
(3.8809e-05 -2.23363e-08 0)
(3.88275e-05 -8.79179e-09 0)
(3.88349e-05 6.22799e-09 0)
(3.88299e-05 2.27804e-08 0)
(3.88113e-05 4.0786e-08 0)
(3.87779e-05 6.0237e-08 0)
(3.87285e-05 8.12355e-08 0)
(3.86619e-05 1.03853e-07 0)
(3.85766e-05 1.28098e-07 0)
(3.84716e-05 1.53912e-07 0)
(3.83453e-05 1.81261e-07 0)
(3.81967e-05 2.10212e-07 0)
(3.80244e-05 2.40761e-07 0)
(3.78271e-05 2.72834e-07 0)
(3.76038e-05 3.06415e-07 0)
(3.73531e-05 3.41466e-07 0)
(3.7074e-05 3.77956e-07 0)
(3.67651e-05 4.15842e-07 0)
(3.64256e-05 4.54983e-07 0)
(3.60543e-05 4.9531e-07 0)
(3.56505e-05 5.36811e-07 0)
(3.52133e-05 5.79372e-07 0)
(3.47416e-05 6.22862e-07 0)
(3.42349e-05 6.67201e-07 0)
(3.36925e-05 7.12257e-07 0)
(3.31141e-05 7.57884e-07 0)
(3.24992e-05 8.03952e-07 0)
(3.18476e-05 8.50263e-07 0)
(3.11591e-05 8.96629e-07 0)
(3.04337e-05 9.4293e-07 0)
(2.96717e-05 9.88927e-07 0)
(2.88733e-05 1.03434e-06 0)
(2.80392e-05 1.07898e-06 0)
(2.717e-05 1.12263e-06 0)
(2.62667e-05 1.16502e-06 0)
(2.53305e-05 1.2059e-06 0)
(2.43626e-05 1.24496e-06 0)
(2.33648e-05 1.28183e-06 0)
(2.23389e-05 1.31618e-06 0)
(2.12871e-05 1.34768e-06 0)
(2.02119e-05 1.37592e-06 0)
(1.9116e-05 1.4005e-06 0)
(1.80025e-05 1.42104e-06 0)
(1.68747e-05 1.4371e-06 0)
(1.57365e-05 1.44814e-06 0)
(1.45922e-05 1.45363e-06 0)
(1.34463e-05 1.45309e-06 0)
(1.23036e-05 1.44593e-06 0)
(1.11698e-05 1.43154e-06 0)
(1.00506e-05 1.40929e-06 0)
(8.95241e-06 1.37853e-06 0)
(7.8819e-06 1.33857e-06 0)
(6.84642e-06 1.28873e-06 0)
(5.85365e-06 1.22837e-06 0)
(4.91168e-06 1.15684e-06 0)
(4.02906e-06 1.07352e-06 0)
(3.21448e-06 9.77911e-07 0)
(2.47663e-06 8.69767e-07 0)
(1.82413e-06 7.49277e-07 0)
(1.26492e-06 6.17391e-07 0)
(8.05575e-07 4.76137e-07 0)
(4.50722e-07 3.29266e-07 0)
(2.01486e-07 1.83861e-07 0)
(5.27969e-08 5.27666e-08 0)
(-1.00766e-08 -4.17912e-08 0)
(-1.1231e-08 -6.00436e-08 0)
(2.14343e-08 -5.29383e-08 0)
(8.94976e-08 -4.36139e-08 0)
(2.65438e-07 -1.83178e-07 0)
(5.39777e-07 -4.21402e-07 0)
(9.32074e-07 -6.94625e-07 0)
(1.44974e-06 -9.69828e-07 0)
(2.09277e-06 -1.23043e-06 0)
(2.85541e-06 -1.46902e-06 0)
(3.72867e-06 -1.68346e-06 0)
(4.70332e-06 -1.8722e-06 0)
(5.76756e-06 -2.03665e-06 0)
(6.91058e-06 -2.17765e-06 0)
(8.1214e-06 -2.2959e-06 0)
(9.38872e-06 -2.39339e-06 0)
(1.07026e-05 -2.47117e-06 0)
(1.20536e-05 -2.53054e-06 0)
(1.34321e-05 -2.57344e-06 0)
(1.48298e-05 -2.60105e-06 0)
(1.6239e-05 -2.61423e-06 0)
(1.76523e-05 -2.61463e-06 0)
(1.90631e-05 -2.60356e-06 0)
(2.04657e-05 -2.58178e-06 0)
(2.18543e-05 -2.5507e-06 0)
(2.32241e-05 -2.51118e-06 0)
(2.45708e-05 -2.464e-06 0)
(2.58905e-05 -2.41031e-06 0)
(2.71797e-05 -2.35092e-06 0)
(2.84357e-05 -2.28651e-06 0)
(2.96556e-05 -2.21798e-06 0)
(3.08375e-05 -2.14591e-06 0)
(3.19795e-05 -2.07088e-06 0)
(3.308e-05 -1.99363e-06 0)
(3.41381e-05 -1.91472e-06 0)
(3.5153e-05 -1.83459e-06 0)
(3.6124e-05 -1.75379e-06 0)
(3.70507e-05 -1.67273e-06 0)
(3.79333e-05 -1.59178e-06 0)
(3.87717e-05 -1.51144e-06 0)
(3.95665e-05 -1.43198e-06 0)
(4.03182e-05 -1.35373e-06 0)
(4.10275e-05 -1.27705e-06 0)
(4.16952e-05 -1.20213e-06 0)
(4.23225e-05 -1.12913e-06 0)
(4.29104e-05 -1.05834e-06 0)
(4.34601e-05 -9.89962e-07 0)
(4.39732e-05 -9.24107e-07 0)
(4.4451e-05 -8.60861e-07 0)
(4.4895e-05 -8.00447e-07 0)
(4.53068e-05 -7.4298e-07 0)
(4.56879e-05 -6.88419e-07 0)
(4.60401e-05 -6.36793e-07 0)
(4.6365e-05 -5.88228e-07 0)
(4.66642e-05 -5.42772e-07 0)
(4.69396e-05 -5.00367e-07 0)
(4.71928e-05 -4.60992e-07 0)
(4.74255e-05 -4.2464e-07 0)
(4.76393e-05 -3.91243e-07 0)
(4.7836e-05 -3.60769e-07 0)
(4.8017e-05 -3.33231e-07 0)
(4.8184e-05 -3.08458e-07 0)
(4.83386e-05 -2.86229e-07 0)
(4.84821e-05 -2.66553e-07 0)
(4.86158e-05 -2.49426e-07 0)
(4.87413e-05 -2.34591e-07 0)
(4.88598e-05 -2.2187e-07 0)
(4.89724e-05 -2.11266e-07 0)
(4.90802e-05 -2.02668e-07 0)
(4.91844e-05 -1.95858e-07 0)
(4.92859e-05 -1.90666e-07 0)
(4.93855e-05 -1.8693e-07 0)
(4.94839e-05 -1.84432e-07 0)
(4.95819e-05 -1.82971e-07 0)
(4.968e-05 -1.82443e-07 0)
(4.97786e-05 -1.82743e-07 0)
(4.98784e-05 -1.83655e-07 0)
(4.99794e-05 -1.84911e-07 0)
(5.00819e-05 -1.86357e-07 0)
(5.01858e-05 -1.87902e-07 0)
(5.02912e-05 -1.89324e-07 0)
(5.0398e-05 -1.90363e-07 0)
(5.05059e-05 -1.90878e-07 0)
(5.06146e-05 -1.90768e-07 0)
(5.07236e-05 -1.8985e-07 0)
(5.08325e-05 -1.87876e-07 0)
(5.09406e-05 -1.84655e-07 0)
(5.10472e-05 -1.80084e-07 0)
(5.11514e-05 -1.73998e-07 0)
(5.12524e-05 -1.66217e-07 0)
(5.13493e-05 -1.56616e-07 0)
(5.14408e-05 -1.45075e-07 0)
(5.15259e-05 -1.31449e-07 0)
(5.16033e-05 -1.1553e-07 0)
(5.16718e-05 -9.71811e-08 0)
(5.173e-05 -7.63786e-08 0)
(5.17764e-05 -5.30132e-08 0)
(5.18095e-05 -2.69404e-08 0)
(5.1828e-05 1.91842e-09 0)
(5.18301e-05 3.3656e-08 0)
(5.18142e-05 6.83224e-08 0)
(5.17785e-05 1.05947e-07 0)
(5.17217e-05 1.46623e-07 0)
(5.16419e-05 1.90394e-07 0)
(5.15373e-05 2.37257e-07 0)
(5.14062e-05 2.87235e-07 0)
(5.12469e-05 3.403e-07 0)
(5.10576e-05 3.96436e-07 0)
(5.08366e-05 4.55662e-07 0)
(5.05823e-05 5.17908e-07 0)
(5.02929e-05 5.83108e-07 0)
(4.99669e-05 6.51202e-07 0)
(4.96028e-05 7.22036e-07 0)
(4.91989e-05 7.955e-07 0)
(4.87537e-05 8.71504e-07 0)
(4.82661e-05 9.49901e-07 0)
(4.77347e-05 1.03054e-06 0)
(4.71584e-05 1.11322e-06 0)
(4.6536e-05 1.1977e-06 0)
(4.58666e-05 1.28376e-06 0)
(4.51494e-05 1.37123e-06 0)
(4.43838e-05 1.45983e-06 0)
(4.35693e-05 1.54921e-06 0)
(4.27055e-05 1.63905e-06 0)
(4.17922e-05 1.72899e-06 0)
(4.08297e-05 1.81867e-06 0)
(3.98179e-05 1.90775e-06 0)
(3.87576e-05 1.99575e-06 0)
(3.76494e-05 2.08221e-06 0)
(3.64944e-05 2.16668e-06 0)
(3.52938e-05 2.24869e-06 0)
(3.40492e-05 2.32763e-06 0)
(3.27625e-05 2.40292e-06 0)
(3.14358e-05 2.47398e-06 0)
(3.00717e-05 2.54015e-06 0)
(2.86733e-05 2.60071e-06 0)
(2.72437e-05 2.65492e-06 0)
(2.57867e-05 2.70199e-06 0)
(2.43065e-05 2.7411e-06 0)
(2.28075e-05 2.77146e-06 0)
(2.12949e-05 2.7922e-06 0)
(1.97743e-05 2.80226e-06 0)
(1.82517e-05 2.8006e-06 0)
(1.67336e-05 2.78619e-06 0)
(1.52273e-05 2.75796e-06 0)
(1.37404e-05 2.71471e-06 0)
(1.22812e-05 2.65529e-06 0)
(1.08583e-05 2.57855e-06 0)
(9.48123e-06 2.48328e-06 0)
(8.15974e-06 2.36833e-06 0)
(6.904e-06 2.2327e-06 0)
(5.72457e-06 2.07548e-06 0)
(4.63224e-06 1.89604e-06 0)
(3.63761e-06 1.69429e-06 0)
(2.75095e-06 1.47098e-06 0)
(1.9816e-06 1.2282e-06 0)
(1.33703e-06 9.70154e-07 0)
(8.22192e-07 7.04067e-07 0)
(4.3853e-07 4.41781e-07 0)
(1.81959e-07 2.02418e-07 0)
(4.09807e-08 1.74129e-08 0)
(-1.25954e-09 -5.83693e-08 0)
(2.05484e-08 -9.73952e-08 0)
(1.26032e-07 -2.10022e-07 0)
(3.88425e-07 -4.62938e-07 0)
(7.8553e-07 -8.24479e-07 0)
(1.32266e-06 -1.23012e-06 0)
(2.0053e-06 -1.63947e-06 0)
(2.83122e-06 -2.03103e-06 0)
(3.79363e-06 -2.39452e-06 0)
(4.88402e-06 -2.72329e-06 0)
(6.0906e-06 -3.01628e-06 0)
(7.4014e-06 -3.27285e-06 0)
(8.80429e-06 -3.49358e-06 0)
(1.02863e-05 -3.68046e-06 0)
(1.18351e-05 -3.83485e-06 0)
(1.34394e-05 -3.95846e-06 0)
(1.5087e-05 -4.05367e-06 0)
(1.67674e-05 -4.12257e-06 0)
(1.84711e-05 -4.1669e-06 0)
(2.01882e-05 -4.18887e-06 0)
(2.19101e-05 -4.19041e-06 0)
(2.36291e-05 -4.17312e-06 0)
(2.53379e-05 -4.13906e-06 0)
(2.70297e-05 -4.08983e-06 0)
(2.86988e-05 -4.02695e-06 0)
(3.03396e-05 -3.95199e-06 0)
(3.19475e-05 -3.86636e-06 0)
(3.35183e-05 -3.7713e-06 0)
(3.50483e-05 -3.66824e-06 0)
(3.65344e-05 -3.55834e-06 0)
(3.79739e-05 -3.4426e-06 0)
(3.93646e-05 -3.32223e-06 0)
(4.07045e-05 -3.19812e-06 0)
(4.19925e-05 -3.0711e-06 0)
(4.32273e-05 -2.94218e-06 0)
(4.44083e-05 -2.81214e-06 0)
(4.55352e-05 -2.68162e-06 0)
(4.66078e-05 -2.55134e-06 0)
(4.76263e-05 -2.42191e-06 0)
(4.85911e-05 -2.29381e-06 0)
(4.9503e-05 -2.16768e-06 0)
(5.03627e-05 -2.04402e-06 0)
(5.11715e-05 -1.92311e-06 0)
(5.19306e-05 -1.80538e-06 0)
(5.26413e-05 -1.6913e-06 0)
(5.33052e-05 -1.58104e-06 0)
(5.39241e-05 -1.47477e-06 0)
(5.44997e-05 -1.37283e-06 0)
(5.50337e-05 -1.27548e-06 0)
(5.55282e-05 -1.1828e-06 0)
(5.59853e-05 -1.09488e-06 0)
(5.64068e-05 -1.01185e-06 0)
(5.6795e-05 -9.33754e-07 0)
(5.71518e-05 -8.60611e-07 0)
(5.74796e-05 -7.92459e-07 0)
(5.77802e-05 -7.29287e-07 0)
(5.8056e-05 -6.7098e-07 0)
(5.83089e-05 -6.17492e-07 0)
(5.85409e-05 -5.6881e-07 0)
(5.8754e-05 -5.24769e-07 0)
(5.89503e-05 -4.85152e-07 0)
(5.91318e-05 -4.49871e-07 0)
(5.92999e-05 -4.18864e-07 0)
(5.94567e-05 -3.91882e-07 0)
(5.96038e-05 -3.68621e-07 0)
(5.97427e-05 -3.48937e-07 0)
(5.9875e-05 -3.32692e-07 0)
(6.00019e-05 -3.19567e-07 0)
(6.01249e-05 -3.09281e-07 0)
(6.02451e-05 -3.0167e-07 0)
(6.03636e-05 -2.96477e-07 0)
(6.04814e-05 -2.93352e-07 0)
(6.05993e-05 -2.92004e-07 0)
(6.07179e-05 -2.92196e-07 0)
(6.08379e-05 -2.93631e-07 0)
(6.09598e-05 -2.95982e-07 0)
(6.10841e-05 -2.98982e-07 0)
(6.12107e-05 -3.02397e-07 0)
(6.13398e-05 -3.05929e-07 0)
(6.14714e-05 -3.09187e-07 0)
(6.16055e-05 -3.11832e-07 0)
(6.17415e-05 -3.13671e-07 0)
(6.18791e-05 -3.14466e-07 0)
(6.20178e-05 -3.13858e-07 0)
(6.2157e-05 -3.1153e-07 0)
(6.22958e-05 -3.07246e-07 0)
(6.24334e-05 -3.0078e-07 0)
(6.25687e-05 -2.91826e-07 0)
(6.27006e-05 -2.80082e-07 0)
(6.28279e-05 -2.6536e-07 0)
(6.29492e-05 -2.47443e-07 0)
(6.30631e-05 -2.26068e-07 0)
(6.31682e-05 -2.01013e-07 0)
(6.32626e-05 -1.72076e-07 0)
(6.33448e-05 -1.39104e-07 0)
(6.34128e-05 -1.01899e-07 0)
(6.3465e-05 -6.02357e-08 0)
(6.34994e-05 -1.40398e-08 0)
(6.3514e-05 3.67582e-08 0)
(6.35067e-05 9.23349e-08 0)
(6.34755e-05 1.52818e-07 0)
(6.34184e-05 2.18288e-07 0)
(6.33331e-05 2.88797e-07 0)
(6.32176e-05 3.64324e-07 0)
(6.30696e-05 4.44905e-07 0)
(6.28869e-05 5.30573e-07 0)
(6.26674e-05 6.21233e-07 0)
(6.24091e-05 7.16841e-07 0)
(6.21096e-05 8.17379e-07 0)
(6.17671e-05 9.22741e-07 0)
(6.13795e-05 1.0328e-06 0)
(6.09447e-05 1.14736e-06 0)
(6.0461e-05 1.26617e-06 0)
(5.99266e-05 1.38909e-06 0)
(5.93398e-05 1.51593e-06 0)
(5.8699e-05 1.6464e-06 0)
(5.80027e-05 1.78013e-06 0)
(5.72496e-05 1.91681e-06 0)
(5.64386e-05 2.05607e-06 0)
(5.55687e-05 2.19751e-06 0)
(5.46391e-05 2.34073e-06 0)
(5.3649e-05 2.4852e-06 0)
(5.25982e-05 2.63038e-06 0)
(5.14865e-05 2.77574e-06 0)
(5.03139e-05 2.92064e-06 0)
(4.90809e-05 3.06444e-06 0)
(4.7788e-05 3.20648e-06 0)
(4.64361e-05 3.34606e-06 0)
(4.50267e-05 3.48237e-06 0)
(4.35612e-05 3.61457e-06 0)
(4.20416e-05 3.74178e-06 0)
(4.04702e-05 3.86301e-06 0)
(3.88498e-05 3.97725e-06 0)
(3.71836e-05 4.08354e-06 0)
(3.54752e-05 4.18076e-06 0)
(3.37286e-05 4.26769e-06 0)
(3.19484e-05 4.34309e-06 0)
(3.01398e-05 4.40564e-06 0)
(2.83085e-05 4.45398e-06 0)
(2.64604e-05 4.48671e-06 0)
(2.46024e-05 4.50235e-06 0)
(2.27419e-05 4.49924e-06 0)
(2.08869e-05 4.47573e-06 0)
(1.9046e-05 4.43017e-06 0)
(1.72283e-05 4.36083e-06 0)
(1.54438e-05 4.26591e-06 0)
(1.37028e-05 4.14367e-06 0)
(1.20163e-05 3.99243e-06 0)
(1.03959e-05 3.81057e-06 0)
(8.85345e-06 3.59664e-06 0)
(7.40105e-06 3.34956e-06 0)
(6.05093e-06 3.06878e-06 0)
(4.81513e-06 2.75458e-06 0)
(3.70524e-06 2.40843e-06 0)
(2.73176e-06 2.03371e-06 0)
(1.90317e-06 1.63679e-06 0)
(1.22527e-06 1.22831e-06 0)
(7.00345e-07 8.24943e-07 0)
(3.26192e-07 4.51534e-07 0)
(9.74968e-08 1.46109e-07 0)
(9.37268e-09 -2.69646e-08 0)
(2.45015e-08 -1.65171e-07 0)
(1.68996e-07 -4.38954e-07 0)
(5.15232e-07 -8.43328e-07 0)
(1.0303e-06 -1.35827e-06 0)
(1.70932e-06 -1.91821e-06 0)
(2.55257e-06 -2.48035e-06 0)
(3.55459e-06 -3.02014e-06 0)
(4.70836e-06 -3.52228e-06 0)
(6.00275e-06 -3.98033e-06 0)
(7.42567e-06 -4.39017e-06 0)
(8.96442e-06 -4.75067e-06 0)
(1.06048e-05 -5.06254e-06 0)
(1.23335e-05 -5.32721e-06 0)
(1.41372e-05 -5.54638e-06 0)
(1.60022e-05 -5.72284e-06 0)
(1.79161e-05 -5.8592e-06 0)
(1.98669e-05 -5.95777e-06 0)
(2.18432e-05 -6.0216e-06 0)
(2.38345e-05 -6.05348e-06 0)
(2.5831e-05 -6.05582e-06 0)
(2.78235e-05 -6.03129e-06 0)
(2.98038e-05 -5.98243e-06 0)
(3.17642e-05 -5.91149e-06 0)
(3.3698e-05 -5.8209e-06 0)
(3.55988e-05 -5.7128e-06 0)
(3.74613e-05 -5.58911e-06 0)
(3.92805e-05 -5.45183e-06 0)
(4.10521e-05 -5.30281e-06 0)
(4.27725e-05 -5.14367e-06 0)
(4.44386e-05 -4.97612e-06 0)
(4.60476e-05 -4.80172e-06 0)
(4.75976e-05 -4.62177e-06 0)
(4.90868e-05 -4.43762e-06 0)
(5.05139e-05 -4.25056e-06 0)
(5.18782e-05 -4.06171e-06 0)
(5.31792e-05 -3.87216e-06 0)
(5.44168e-05 -3.68293e-06 0)
(5.55913e-05 -3.49484e-06 0)
(5.6703e-05 -3.30878e-06 0)
(5.77528e-05 -3.12553e-06 0)
(5.87417e-05 -2.94575e-06 0)
(5.96711e-05 -2.76999e-06 0)
(6.05423e-05 -2.59893e-06 0)
(6.13571e-05 -2.43311e-06 0)
(6.21173e-05 -2.27283e-06 0)
(6.28249e-05 -2.11847e-06 0)
(6.34818e-05 -1.97052e-06 0)
(6.40904e-05 -1.82913e-06 0)
(6.4653e-05 -1.69452e-06 0)
(6.51719e-05 -1.56694e-06 0)
(6.56495e-05 -1.44653e-06 0)
(6.60883e-05 -1.33334e-06 0)
(6.64908e-05 -1.22742e-06 0)
(6.68595e-05 -1.1288e-06 0)
(6.71969e-05 -1.03742e-06 0)
(6.75056e-05 -9.53208e-07 0)
(6.77878e-05 -8.76155e-07 0)
(6.80461e-05 -8.06119e-07 0)
(6.82829e-05 -7.42797e-07 0)
(6.85006e-05 -6.86016e-07 0)
(6.87012e-05 -6.35683e-07 0)
(6.88869e-05 -5.91547e-07 0)
(6.906e-05 -5.53242e-07 0)
(6.92224e-05 -5.20488e-07 0)
(6.93758e-05 -4.93062e-07 0)
(6.95222e-05 -4.70649e-07 0)
(6.96632e-05 -4.52824e-07 0)
(6.98002e-05 -4.39204e-07 0)
(6.99348e-05 -4.29455e-07 0)
(7.00682e-05 -4.23182e-07 0)
(7.02015e-05 -4.1998e-07 0)
(7.03357e-05 -4.19489e-07 0)
(7.04717e-05 -4.21282e-07 0)
(7.06102e-05 -4.24846e-07 0)
(7.07518e-05 -4.29737e-07 0)
(7.08969e-05 -4.35629e-07 0)
(7.10456e-05 -4.42134e-07 0)
(7.11982e-05 -4.48733e-07 0)
(7.13547e-05 -4.54938e-07 0)
(7.15148e-05 -4.60343e-07 0)
(7.1678e-05 -4.64584e-07 0)
(7.1844e-05 -4.67211e-07 0)
(7.20122e-05 -4.67732e-07 0)
(7.21816e-05 -4.65758e-07 0)
(7.23515e-05 -4.60925e-07 0)
(7.25207e-05 -4.5282e-07 0)
(7.26881e-05 -4.41051e-07 0)
(7.28523e-05 -4.2525e-07 0)
(7.30117e-05 -4.0508e-07 0)
(7.31648e-05 -3.80165e-07 0)
(7.331e-05 -3.50118e-07 0)
(7.34454e-05 -3.1468e-07 0)
(7.3569e-05 -2.73596e-07 0)
(7.36788e-05 -2.26554e-07 0)
(7.37728e-05 -1.73261e-07 0)
(7.38486e-05 -1.13448e-07 0)
(7.3904e-05 -4.69459e-08 0)
(7.39367e-05 2.63492e-08 0)
(7.39441e-05 1.06659e-07 0)
(7.3924e-05 1.94199e-07 0)
(7.38738e-05 2.89045e-07 0)
(7.3791e-05 3.91262e-07 0)
(7.36729e-05 5.0089e-07 0)
(7.3517e-05 6.17931e-07 0)
(7.33208e-05 7.4242e-07 0)
(7.30815e-05 8.74287e-07 0)
(7.27969e-05 1.0134e-06 0)
(7.24642e-05 1.15971e-06 0)
(7.20812e-05 1.3131e-06 0)
(7.16454e-05 1.47333e-06 0)
(7.11543e-05 1.64015e-06 0)
(7.06059e-05 1.8133e-06 0)
(6.9998e-05 1.99248e-06 0)
(6.93288e-05 2.17735e-06 0)
(6.85961e-05 2.36751e-06 0)
(6.77985e-05 2.56244e-06 0)
(6.69341e-05 2.76165e-06 0)
(6.60018e-05 2.96467e-06 0)
(6.50004e-05 3.17082e-06 0)
(6.39289e-05 3.37946e-06 0)
(6.27865e-05 3.58991e-06 0)
(6.15728e-05 3.80141e-06 0)
(6.02877e-05 4.01312e-06 0)
(5.89312e-05 4.22415e-06 0)
(5.75037e-05 4.43356e-06 0)
(5.60061e-05 4.6403e-06 0)
(5.44395e-05 4.84337e-06 0)
(5.28053e-05 5.04166e-06 0)
(5.11055e-05 5.23387e-06 0)
(4.93422e-05 5.4187e-06 0)
(4.75183e-05 5.59481e-06 0)
(4.56371e-05 5.76072e-06 0)
(4.37022e-05 5.91489e-06 0)
(4.1718e-05 6.05578e-06 0)
(3.96891e-05 6.18169e-06 0)
(3.76209e-05 6.29082e-06 0)
(3.55195e-05 6.3813e-06 0)
(3.33912e-05 6.45117e-06 0)
(3.12433e-05 6.49835e-06 0)
(2.90836e-05 6.52072e-06 0)
(2.69205e-05 6.5161e-06 0)
(2.47633e-05 6.4822e-06 0)
(2.26218e-05 6.41665e-06 0)
(2.05066e-05 6.31708e-06 0)
(1.84286e-05 6.18109e-06 0)
(1.63999e-05 6.00632e-06 0)
(1.44326e-05 5.79054e-06 0)
(1.25398e-05 5.53168e-06 0)
(1.07343e-05 5.22798e-06 0)
(9.0299e-06 4.87822e-06 0)
(7.4399e-06 4.48196e-06 0)
(5.97742e-06 4.04e-06 0)
(4.65498e-06 3.5548e-06 0)
(3.48423e-06 3.03107e-06 0)
(2.47502e-06 2.47707e-06 0)
(1.63471e-06 1.90629e-06 0)
(9.67275e-07 1.33926e-06 0)
(4.73104e-07 8.05522e-07 0)
(1.54155e-07 3.47673e-07 0)
(1.95511e-08 3.48243e-08 0)
(3.03866e-08 -2.57272e-07 0)
(2.14305e-07 -7.30649e-07 0)
(6.40727e-07 -1.32305e-06 0)
(1.26833e-06 -2.01815e-06 0)
(2.08302e-06 -2.75385e-06 0)
(3.07907e-06 -3.48656e-06 0)
(4.24968e-06 -4.18803e-06 0)
(5.58363e-06 -4.84265e-06 0)
(7.06917e-06 -5.44087e-06 0)
(8.69348e-06 -5.97778e-06 0)
(1.04418e-05 -6.4518e-06 0)
(1.22997e-05 -6.86305e-06 0)
(1.42529e-05 -7.21251e-06 0)
(1.62865e-05 -7.50288e-06 0)
(1.83862e-05 -7.73711e-06 0)
(2.05386e-05 -7.91811e-06 0)
(2.27306e-05 -8.0493e-06 0)
(2.49496e-05 -8.13427e-06 0)
(2.71843e-05 -8.17636e-06 0)
(2.94239e-05 -8.17902e-06 0)
(3.16582e-05 -8.14571e-06 0)
(3.38781e-05 -8.07952e-06 0)
(3.60751e-05 -7.98366e-06 0)
(3.82416e-05 -7.86117e-06 0)
(4.03708e-05 -7.71488e-06 0)
(4.24563e-05 -7.54755e-06 0)
(4.44928e-05 -7.36179e-06 0)
(4.64756e-05 -7.15996e-06 0)
(4.84003e-05 -6.94446e-06 0)
(5.02635e-05 -6.71747e-06 0)
(5.20623e-05 -6.48099e-06 0)
(5.37943e-05 -6.237e-06 0)
(5.54575e-05 -5.98731e-06 0)
(5.70506e-05 -5.73356e-06 0)
(5.85725e-05 -5.47733e-06 0)
(6.00229e-05 -5.2201e-06 0)
(6.14015e-05 -4.96316e-06 0)
(6.27087e-05 -4.70778e-06 0)
(6.39449e-05 -4.45521e-06 0)
(6.51111e-05 -4.20636e-06 0)
(6.62086e-05 -3.96215e-06 0)
(6.72386e-05 -3.72357e-06 0)
(6.82029e-05 -3.49136e-06 0)
(6.91035e-05 -3.26614e-06 0)
(6.99425e-05 -3.04851e-06 0)
(7.0722e-05 -2.83911e-06 0)
(7.14445e-05 -2.63839e-06 0)
(7.21124e-05 -2.44662e-06 0)
(7.27285e-05 -2.26416e-06 0)
(7.32954e-05 -2.09129e-06 0)
(7.38159e-05 -1.9282e-06 0)
(7.42928e-05 -1.775e-06 0)
(7.47291e-05 -1.63179e-06 0)
(7.51275e-05 -1.49855e-06 0)
(7.5491e-05 -1.37521e-06 0)
(7.58223e-05 -1.26174e-06 0)
(7.61244e-05 -1.15808e-06 0)
(7.64e-05 -1.06395e-06 0)
(7.66519e-05 -9.7906e-07 0)
(7.68827e-05 -9.03266e-07 0)
(7.7095e-05 -8.36314e-07 0)
(7.72912e-05 -7.7775e-07 0)
(7.74739e-05 -7.27197e-07 0)
(7.76453e-05 -6.8435e-07 0)
(7.78074e-05 -6.48778e-07 0)
(7.79625e-05 -6.20002e-07 0)
(7.81123e-05 -5.97576e-07 0)
(7.82587e-05 -5.81002e-07 0)
(7.84032e-05 -5.69713e-07 0)
(7.85473e-05 -5.63151e-07 0)
(7.86924e-05 -5.60826e-07 0)
(7.88396e-05 -5.62234e-07 0)