/*--------------------------------*- C++ -*----------------------------------*\
  =========                 |
  \\      /  F ield         | OpenFOAM: The Open Source CFD Toolbox
   \\    /   O peration     | Website:  https://openfoam.org
    \\  /    A nd           | Version:  7
     \\/     M anipulation  |
\*---------------------------------------------------------------------------*/
FoamFile
{
    version     2.0;
    format      ascii;
    class       volScalarField;
    location    "0.05";
    object      p;
}
// * * * * * * * * * * * * * * * * * * * * * * * * * * * * * * * * * * * * * //

dimensions      [0 2 -2 0 0 0 0];

internalField   nonuniform List<scalar> 
51200
(
-1.00253e-07
0.000227427
0.000546104
-0.000253537
-0.00244765
-0.00604401
-0.0109901
-0.0170854
-0.0241251
-0.0318619
-0.0399972
-0.0482828
-0.0565515
-0.0645795
-0.072184
-0.0791875
-0.0855585
-0.0913121
-0.0964621
-0.101024
-0.104934
-0.1081
-0.110527
-0.112339
-0.113567
-0.114311
-0.114617
-0.114547
-0.114223
-0.113731
-0.113093
-0.112337
-0.111507
-0.11063
-0.109777
-0.108976
-0.108243
-0.10756
-0.106988
-0.106495
-0.106102
-0.105855
-0.105702
-0.105648
-0.105688
-0.105825
-0.106053
-0.106347
-0.106689
-0.107044
-0.107414
-0.107842
-0.108324
-0.108836
-0.109384
-0.109961
-0.11054
-0.111155
-0.111837
-0.11255
-0.11324
-0.113895
-0.114532
-0.115162
-0.115805
-0.116485
-0.117182
-0.117832
-0.118403
-0.1189
-0.119336
-0.119728
-0.120099
-0.120475
-0.120836
-0.121134
-0.121354
-0.121518
-0.121643
-0.121736
-0.121815
-0.121911
-0.122024
-0.122136
-0.122233
-0.122309
-0.122357
-0.122353
-0.122283
-0.122166
-0.12203
-0.121889
-0.121752
-0.121637
-0.121564
-0.121518
-0.12147
-0.121419
-0.12138
-0.121365
-0.12138
-0.121427
-0.12152
-0.121673
-0.121877
-0.122112
-0.12236
-0.122602
-0.122819
-0.122998
-0.123134
-0.123243
-0.123358
-0.1235
-0.123674
-0.123883
-0.124128
-0.124404
-0.124696
-0.124981
-0.12523
-0.125436
-0.125605
-0.125749
-0.125874
-0.125984
-0.126088
-0.126197
-0.126316
-0.12644
-0.126565
-0.126692
-0.126828
-0.126968
-0.1271
-0.127224
-0.127357
-0.127521
-0.127732
-0.127984
-0.128257
-0.128542
-0.128842
-0.129159
-0.129482
-0.129793
-0.130078
-0.130329
-0.13055
-0.130745
-0.130908
-0.131033
-0.131117
-0.131169
-0.131195
-0.131184
-0.13111
-0.130987
-0.1309
-0.131033
0.000291156
-0.00214373
-0.00410985
-0.00663112
-0.00990313
-0.0139234
-0.0187303
-0.0242863
-0.030503
-0.0372023
-0.0441955
-0.0512971
-0.0583472
-0.0651967
-0.0717197
-0.0778505
-0.0834425
-0.088504
-0.0930998
-0.0972423
-0.100888
-0.103968
-0.106415
-0.108282
-0.109666
-0.110598
-0.111128
-0.111322
-0.111268
-0.111024
-0.110665
-0.110214
-0.109666
-0.109069
-0.108466
-0.107883
-0.107318
-0.106836
-0.106405
-0.106042
-0.105768
-0.105567
-0.105485
-0.105498
-0.105589
-0.105753
-0.105993
-0.10631
-0.106671
-0.10706
-0.107486
-0.107939
-0.108421
-0.108949
-0.109517
-0.110092
-0.110652
-0.111217
-0.111818
-0.11246
-0.113137
-0.113836
-0.114526
-0.115178
-0.115802
-0.116422
-0.117037
-0.117627
-0.11818
-0.118687
-0.119134
-0.119522
-0.119877
-0.120222
-0.120549
-0.120829
-0.121051
-0.121222
-0.121346
-0.121438
-0.121524
-0.121632
-0.121762
-0.121894
-0.122016
-0.122121
-0.122195
-0.122218
-0.122179
-0.1221
-0.122008
-0.121906
-0.121803
-0.121728
-0.121692
-0.121672
-0.121641
-0.121595
-0.121556
-0.121535
-0.121527
-0.121554
-0.121638
-0.121779
-0.121962
-0.122172
-0.122389
-0.122607
-0.122809
-0.122966
-0.123077
-0.12317
-0.123267
-0.123386
-0.123542
-0.123728
-0.123943
-0.12419
-0.124452
-0.124699
-0.124917
-0.125108
-0.125268
-0.125403
-0.125528
-0.125647
-0.12577
-0.125914
-0.12608
-0.126244
-0.1264
-0.12656
-0.126727
-0.126887
-0.127031
-0.127165
-0.127307
-0.127473
-0.127677
-0.127914
-0.128164
-0.128425
-0.12871
-0.129016
-0.129321
-0.129607
-0.12987
-0.130105
-0.130312
-0.130494
-0.13065
-0.130773
-0.130865
-0.130936
-0.130997
-0.131037
-0.131035
-0.131008
-0.131036
-0.131236
0.000927586
-0.00385756
-0.0076283
-0.0115517
-0.0157218
-0.0201511
-0.0249579
-0.0301562
-0.0357577
-0.0417008
-0.0478408
-0.0540185
-0.0601085
-0.0660292
-0.0716782
-0.0770217
-0.0820133
-0.0865382
-0.0906085
-0.094346
-0.0977011
-0.100619
-0.10305
-0.104928
-0.106381
-0.107431
-0.10812
-0.108513
-0.108653
-0.10863
-0.108481
-0.108239
-0.107926
-0.107585
-0.10718
-0.106774
-0.106387
-0.106045
-0.105756
-0.105532
-0.105358
-0.105234
-0.105217
-0.105288
-0.105424
-0.105635
-0.105909
-0.106226
-0.106593
-0.107014
-0.107467
-0.107944
-0.108443
-0.108969
-0.109536
-0.110128
-0.110706
-0.111264
-0.111828
-0.112413
-0.113041
-0.11373
-0.114442
-0.115125
-0.115769
-0.116378
-0.116946
-0.117481
-0.118001
-0.118497
-0.118946
-0.119342
-0.119701
-0.120031
-0.120325
-0.120579
-0.120793
-0.120967
-0.12109
-0.121182
-0.121283
-0.121408
-0.12155
-0.121697
-0.121845
-0.121982
-0.122078
-0.122119
-0.122111
-0.122067
-0.122006
-0.121932
-0.121858
-0.121816
-0.121806
-0.121795
-0.121771
-0.121735
-0.121696
-0.121664
-0.121642
-0.121652
-0.12173
-0.121868
-0.122037
-0.122229
-0.122433
-0.122633
-0.122813
-0.122951
-0.123039
-0.12311
-0.123194
-0.123296
-0.123425
-0.123593
-0.123798
-0.124027
-0.124266
-0.124491
-0.124688
-0.124864
-0.125023
-0.125159
-0.125278
-0.125401
-0.125543
-0.125711
-0.125897
-0.126084
-0.126267
-0.126449
-0.126633
-0.126805
-0.126956
-0.127095
-0.127246
-0.127426
-0.127634
-0.127858
-0.128091
-0.128342
-0.128617
-0.12891
-0.129198
-0.129465
-0.12971
-0.129935
-0.13014
-0.130322
-0.130475
-0.130596
-0.130697
-0.130788
-0.130871
-0.130937
-0.130979
-0.131014
-0.131103
-0.131323
0.000534484
-0.00604884
-0.0112317
-0.0162102
-0.0210639
-0.0257622
-0.0305271
-0.0354595
-0.0405456
-0.0458469
-0.051257
-0.0566784
-0.0619803
-0.0670795
-0.0719986
-0.0766513
-0.0810368
-0.0850926
-0.0887653
-0.0920747
-0.0951322
-0.0978254
-0.10011
-0.102
-0.103468
-0.104591
-0.105415
-0.105958
-0.10627
-0.106428
-0.106454
-0.106384
-0.106265
-0.106069
-0.105875
-0.105642
-0.105403
-0.105183
-0.105018
-0.104923
-0.104835
-0.10482
-0.104863
-0.104973
-0.105169
-0.105423
-0.105728
-0.10608
-0.106462
-0.106878
-0.107345
-0.107852
-0.108366
-0.10889
-0.109446
-0.110024
-0.11061
-0.111206
-0.111795
-0.112375
-0.112972
-0.113612
-0.114283
-0.114958
-0.115626
-0.116261
-0.116833
-0.117354
-0.117848
-0.118306
-0.118725
-0.11912
-0.119492
-0.11982
-0.120095
-0.120333
-0.120535
-0.120693
-0.120814
-0.120921
-0.12104
-0.12118
-0.121332
-0.121498
-0.12167
-0.121827
-0.121944
-0.122009
-0.122031
-0.122018
-0.121981
-0.121935
-0.121895
-0.12188
-0.121886
-0.121881
-0.121854
-0.121822
-0.121789
-0.12175
-0.12172
-0.121727
-0.121799
-0.12193
-0.122089
-0.122266
-0.122461
-0.122652
-0.122806
-0.122914
-0.122989
-0.123052
-0.123121
-0.123207
-0.123319
-0.123468
-0.123662
-0.123885
-0.124104
-0.124304
-0.124488
-0.124659
-0.124807
-0.124939
-0.125068
-0.125205
-0.125362
-0.125547
-0.125747
-0.125942
-0.126138
-0.126345
-0.126548
-0.126725
-0.126877
-0.127027
-0.127194
-0.127383
-0.127593
-0.127811
-0.128034
-0.128275
-0.128543
-0.128823
-0.129091
-0.129338
-0.129575
-0.129802
-0.13001
-0.130192
-0.130345
-0.130473
-0.130583
-0.130686
-0.13078
-0.130863
-0.130938
-0.131025
-0.131165
-0.131408
-0.00125163
-0.0089822
-0.0150884
-0.0207535
-0.0260074
-0.0307981
-0.0354218
-0.040037
-0.0447184
-0.0494739
-0.0542942
-0.0591103
-0.0638069
-0.0683088
-0.0725727
-0.0766578
-0.0805389
-0.0841493
-0.0874696
-0.090484
-0.0932376
-0.095712
-0.0978405
-0.0996298
-0.101096
-0.10228
-0.103172
-0.103802
-0.104273
-0.104567
-0.104747
-0.104824
-0.104813
-0.104764
-0.104696
-0.104609
-0.104501
-0.104397
-0.104337
-0.104299
-0.104313
-0.104379
-0.104476
-0.10464
-0.104862
-0.105138
-0.105481
-0.105868
-0.106271
-0.106699
-0.107172
-0.107686
-0.108223
-0.10877
-0.109322
-0.109876
-0.110446
-0.111043
-0.111652
-0.112265
-0.112886
-0.113508
-0.114134
-0.114778
-0.115433
-0.116067
-0.116653
-0.117193
-0.117687
-0.118121
-0.118512
-0.118889
-0.11925
-0.119573
-0.119844
-0.120077
-0.120272
-0.120416
-0.120535
-0.120658
-0.120795
-0.120946
-0.12111
-0.121294
-0.121487
-0.121658
-0.12179
-0.121884
-0.121937
-0.121949
-0.121931
-0.121908
-0.121899
-0.121909
-0.121921
-0.12192
-0.1219
-0.121868
-0.121832
-0.121792
-0.121762
-0.121777
-0.121852
-0.121967
-0.122114
-0.122289
-0.122474
-0.122649
-0.122786
-0.122872
-0.12293
-0.12299
-0.123054
-0.123123
-0.123222
-0.123367
-0.123549
-0.123755
-0.123961
-0.124149
-0.124322
-0.124485
-0.124629
-0.124755
-0.124888
-0.125047
-0.125228
-0.125425
-0.125628
-0.125832
-0.126043
-0.126265
-0.126478
-0.126663
-0.126826
-0.126988
-0.127168
-0.127365
-0.127573
-0.127784
-0.128002
-0.128242
-0.128502
-0.128763
-0.129009
-0.129245
-0.12948
-0.129713
-0.129924
-0.130106
-0.130263
-0.130397
-0.130518
-0.130633
-0.130735
-0.130826
-0.130927
-0.13106
-0.131249
-0.131513
-0.00445955
-0.0126749
-0.0192116
-0.0251495
-0.0305101
-0.0352086
-0.0396021
-0.0438485
-0.0481093
-0.05241
-0.0567844
-0.0611366
-0.0653876
-0.0694726
-0.073312
-0.0769334
-0.0803821
-0.0836583
-0.0866795
-0.0894712
-0.0920188
-0.0943186
-0.0963183
-0.0979962
-0.0994229
-0.100594
-0.101527
-0.102256
-0.102774
-0.10318
-0.103476
-0.103668
-0.103752
-0.103798
-0.103806
-0.103812
-0.103813
-0.103798
-0.103804
-0.103825
-0.103896
-0.103984
-0.104143
-0.104359
-0.10459
-0.104882
-0.105241
-0.105637
-0.106064
-0.106518
-0.106991
-0.107497
-0.108043
-0.108608
-0.109175
-0.109743
-0.110312
-0.110885
-0.111478
-0.112102
-0.112739
-0.113371
-0.114002
-0.114637
-0.115265
-0.11587
-0.116452
-0.117
-0.117493
-0.117924
-0.118313
-0.118679
-0.119013
-0.119315
-0.119589
-0.119825
-0.120011
-0.120153
-0.12028
-0.120419
-0.120564
-0.12072
-0.120903
-0.121106
-0.121308
-0.121487
-0.121635
-0.121757
-0.121834
-0.12186
-0.121865
-0.121869
-0.12188
-0.1219
-0.121918
-0.121923
-0.121915
-0.121886
-0.121845
-0.121808
-0.121789
-0.121812
-0.121888
-0.121999
-0.122134
-0.122302
-0.122483
-0.122641
-0.122758
-0.122836
-0.122891
-0.122941
-0.122996
-0.12306
-0.123153
-0.123293
-0.123471
-0.123661
-0.123847
-0.124028
-0.124202
-0.12436
-0.124493
-0.12462
-0.124766
-0.124941
-0.125139
-0.125348
-0.12556
-0.125774
-0.125999
-0.126234
-0.126453
-0.126641
-0.126815
-0.126995
-0.127186
-0.127385
-0.127589
-0.127798
-0.128017
-0.128256
-0.128509
-0.128752
-0.12898
-0.129207
-0.129444
-0.12968
-0.129891
-0.130071
-0.130229
-0.13037
-0.1305
-0.130623
-0.130735
-0.130835
-0.130954
-0.131122
-0.131345
-0.131629
-0.0090431
-0.0171718
-0.0237208
-0.0296085
-0.0348295
-0.039323
-0.0433847
-0.0472737
-0.0510943
-0.0549739
-0.0589166
-0.0629054
-0.0668299
-0.0705651
-0.074104
-0.0774061
-0.080524
-0.0834787
-0.0862513
-0.0888511
-0.0912653
-0.0934516
-0.0953491
-0.0969648
-0.0983191
-0.0994774
-0.100431
-0.101178
-0.101754
-0.102221
-0.102585
-0.102835
-0.103014
-0.103119
-0.103186
-0.103252
-0.103303
-0.103363
-0.103425
-0.103503
-0.103587
-0.103697
-0.103875
-0.1041
-0.104368
-0.104678
-0.105025
-0.105425
-0.10587
-0.106333
-0.106817
-0.107329
-0.107864
-0.108418
-0.108994
-0.109588
-0.110177
-0.110755
-0.111345
-0.111956
-0.112575
-0.113205
-0.113848
-0.114485
-0.115102
-0.115699
-0.11627
-0.116798
-0.117275
-0.117708
-0.118103
-0.11846
-0.118779
-0.11907
-0.119341
-0.119571
-0.119754
-0.119908
-0.120052
-0.1202
-0.120351
-0.120516
-0.120714
-0.120928
-0.121133
-0.121322
-0.121491
-0.121629
-0.121721
-0.121761
-0.121785
-0.121815
-0.121842
-0.121863
-0.121886
-0.121902
-0.121903
-0.121882
-0.121845
-0.121816
-0.121815
-0.121847
-0.121917
-0.122023
-0.12216
-0.122322
-0.122488
-0.122631
-0.122737
-0.12281
-0.122866
-0.122913
-0.122958
-0.123018
-0.123115
-0.123252
-0.123418
-0.123596
-0.123773
-0.123945
-0.124113
-0.124265
-0.124397
-0.124529
-0.124691
-0.124884
-0.125093
-0.125309
-0.125531
-0.125762
-0.126005
-0.126248
-0.126468
-0.126659
-0.126844
-0.127038
-0.127237
-0.127436
-0.12764
-0.127853
-0.128077
-0.128316
-0.128559
-0.128788
-0.129004
-0.129226
-0.129461
-0.129693
-0.129901
-0.130081
-0.130239
-0.130385
-0.130518
-0.130645
-0.130763
-0.130879
-0.131017
-0.131204
-0.131446
-0.131739
-0.0148124
-0.0224472
-0.0286558
-0.0342536
-0.0391334
-0.0432664
-0.0469997
-0.0505277
-0.053966
-0.0574342
-0.0610027
-0.0646323
-0.0682236
-0.0717111
-0.0749556
-0.077991
-0.0808694
-0.0835945
-0.0861309
-0.0885314
-0.090804
-0.0928986
-0.0947545
-0.0963124
-0.0976357
-0.0987609
-0.0997189
-0.100481
-0.101105
-0.101587
-0.101974
-0.102282
-0.102497
-0.102647
-0.102776
-0.10287
-0.102952
-0.103056
-0.103152
-0.103272
-0.103379
-0.103509
-0.103679
-0.103896
-0.104178
-0.104497
-0.104847
-0.105245
-0.105683
-0.106147
-0.106645
-0.107171
-0.107705
-0.108249
-0.108822
-0.109416
-0.110014
-0.110617
-0.111229
-0.111839
-0.112442
-0.113056
-0.11369
-0.114317
-0.114926
-0.115522
-0.11609
-0.116601
-0.117058
-0.117483
-0.117874
-0.118223
-0.118539
-0.118832
-0.119098
-0.119325
-0.119509
-0.119677
-0.11984
-0.119994
-0.120152
-0.120331
-0.120538
-0.120756
-0.120963
-0.121161
-0.12135
-0.121502
-0.121597
-0.12165
-0.121696
-0.121741
-0.121776
-0.121802
-0.121833
-0.121862
-0.121871
-0.121855
-0.121833
-0.121827
-0.121838
-0.121872
-0.12194
-0.122044
-0.122183
-0.122341
-0.122493
-0.12262
-0.122721
-0.122796
-0.12285
-0.122893
-0.122937
-0.123
-0.123098
-0.123231
-0.123386
-0.123554
-0.123724
-0.123892
-0.124053
-0.124197
-0.124327
-0.124471
-0.124652
-0.124861
-0.125079
-0.1253
-0.125535
-0.125787
-0.126045
-0.126291
-0.126511
-0.12671
-0.126906
-0.127106
-0.127305
-0.127506
-0.127718
-0.12794
-0.128173
-0.128413
-0.128648
-0.128865
-0.129073
-0.129294
-0.129526
-0.129743
-0.129938
-0.13012
-0.130292
-0.130447
-0.130577
-0.130696
-0.130819
-0.130952
-0.131109
-0.131311
-0.131557
-0.131848
-0.0215577
-0.0283888
-0.0340112
-0.0390977
-0.0435348
-0.0472158
-0.0505229
-0.0536982
-0.056839
-0.0599504
-0.0631591
-0.0664399
-0.0697198
-0.0728976
-0.0759132
-0.0787247
-0.0813723
-0.0838795
-0.0862701
-0.0884877
-0.0905908
-0.0925743
-0.0943569
-0.0958843
-0.0971836
-0.0982974
-0.0992419
-0.100032
-0.100658
-0.101171
-0.101586
-0.101894
-0.102128
-0.102324
-0.102476
-0.102597
-0.102722
-0.102824
-0.102944
-0.103083
-0.103216
-0.103357
-0.103528
-0.103751
-0.104016
-0.104327
-0.104691
-0.105087
-0.105511
-0.105971
-0.106469
-0.106998
-0.107543
-0.108099
-0.108674
-0.109259
-0.109855
-0.110472
-0.111099
-0.111715
-0.112323
-0.112935
-0.113546
-0.114148
-0.114746
-0.115336
-0.115889
-0.11639
-0.116843
-0.117258
-0.117634
-0.11797
-0.118289
-0.118591
-0.118854
-0.119078
-0.119276
-0.119458
-0.119631
-0.119793
-0.119961
-0.120155
-0.120365
-0.120578
-0.120793
-0.121006
-0.121202
-0.12136
-0.121464
-0.12153
-0.121591
-0.121645
-0.121682
-0.121717
-0.121761
-0.121799
-0.121816
-0.121813
-0.121811
-0.121825
-0.121851
-0.121888
-0.121953
-0.122058
-0.122198
-0.122349
-0.122488
-0.122608
-0.122711
-0.122787
-0.122837
-0.122878
-0.122925
-0.122994
-0.123093
-0.123218
-0.123362
-0.123522
-0.123691
-0.123858
-0.124013
-0.124148
-0.12428
-0.12444
-0.124638
-0.124855
-0.12508
-0.125315
-0.125567
-0.125832
-0.126098
-0.126348
-0.12657
-0.126774
-0.12698
-0.127187
-0.127387
-0.127589
-0.127809
-0.12805
-0.128295
-0.128533
-0.128757
-0.128968
-0.129178
-0.129399
-0.129621
-0.129822
-0.130003
-0.130186
-0.130373
-0.130544
-0.130681
-0.130796
-0.130915
-0.131057
-0.131228
-0.131437
-0.131682
-0.131968
-0.0290473
-0.0348278
-0.0396963
-0.0441696
-0.0480619
-0.0512502
-0.0541068
-0.0568834
-0.0596937
-0.0625465
-0.0654167
-0.0683637
-0.0713341
-0.0741987
-0.0769426
-0.0795129
-0.0819938
-0.0843558
-0.0865508
-0.0886276
-0.0905863
-0.0924294
-0.0941074
-0.0955991
-0.0968542
-0.0979536
-0.0989059
-0.0996937
-0.100335
-0.100867
-0.101289
-0.101608
-0.10186
-0.102062
-0.10223
-0.102389
-0.102529
-0.102646
-0.102784
-0.102911
-0.103056
-0.10321
-0.103386
-0.103611
-0.103869
-0.104174
-0.104535
-0.104929
-0.105354
-0.105812
-0.106301
-0.106823
-0.107372
-0.107939
-0.108522
-0.109117
-0.10972
-0.110338
-0.110965
-0.111587
-0.112202
-0.112808
-0.113404
-0.11399
-0.114574
-0.115143
-0.115675
-0.116167
-0.116621
-0.117024
-0.117385
-0.117719
-0.118038
-0.118339
-0.118602
-0.118833
-0.119047
-0.11924
-0.119416
-0.119591
-0.119772
-0.11997
-0.120181
-0.120395
-0.120616
-0.120843
-0.121045
-0.121201
-0.121316
-0.121399
-0.121468
-0.121525
-0.121566
-0.121609
-0.121664
-0.121714
-0.121738
-0.12175
-0.121774
-0.12181
-0.121842
-0.121881
-0.121953
-0.122062
-0.122197
-0.122339
-0.122472
-0.122591
-0.122696
-0.122775
-0.122824
-0.122862
-0.122916
-0.122995
-0.123093
-0.123205
-0.123341
-0.123503
-0.123671
-0.12383
-0.123979
-0.124119
-0.12426
-0.12443
-0.124639
-0.124865
-0.125095
-0.125342
-0.125612
-0.125892
-0.126162
-0.126407
-0.126631
-0.126846
-0.127061
-0.127268
-0.127469
-0.127682
-0.127919
-0.128173
-0.128423
-0.12866
-0.128882
-0.129093
-0.129303
-0.129522
-0.129739
-0.129932
-0.130105
-0.130285
-0.130481
-0.130667
-0.130818
-0.130942
-0.131067
-0.131212
-0.131384
-0.131587
-0.131824
-0.132103
-0.0370113
-0.0416121
-0.0455944
-0.0493459
-0.0526798
-0.0554183
-0.0578029
-0.0601785
-0.0626349
-0.0651686
-0.0677792
-0.0703863
-0.0730037
-0.0756057
-0.0780536
-0.0804244
-0.0826768
-0.084879
-0.0869705
-0.0889121
-0.0907208
-0.0924268
-0.0940215
-0.0954091
-0.0966354
-0.0977113
-0.0986348
-0.0994272
-0.100085
-0.10061
-0.10104
-0.101384
-0.101636
-0.101837
-0.102023
-0.102198
-0.102346
-0.102498
-0.102634
-0.102764
-0.102908
-0.10306
-0.103243
-0.103461
-0.103719
-0.104027
-0.104375
-0.104763
-0.105194
-0.105656
-0.106145
-0.106661
-0.107205
-0.107773
-0.10836
-0.108966
-0.10959
-0.110217
-0.11084
-0.111461
-0.112076
-0.112672
-0.113253
-0.113832
-0.114404
-0.114952
-0.115465
-0.115944
-0.11639
-0.116784
-0.117134
-0.117471
-0.11779
-0.118081
-0.118345
-0.118585
-0.11881
-0.119013
-0.119193
-0.119377
-0.119574
-0.119771
-0.119976
-0.120199
-0.120433
-0.120664
-0.120869
-0.12103
-0.121154
-0.121252
-0.121327
-0.121381
-0.121429
-0.121487
-0.121548
-0.121598
-0.121638
-0.121675
-0.121718
-0.121765
-0.121807
-0.121853
-0.12193
-0.122047
-0.122182
-0.122315
-0.122444
-0.122571
-0.12268
-0.122753
-0.122802
-0.12285
-0.122913
-0.122991
-0.123084
-0.123194
-0.123328
-0.123489
-0.123659
-0.123817
-0.123961
-0.124103
-0.124259
-0.124445
-0.124658
-0.124882
-0.125121
-0.125386
-0.125669
-0.125951
-0.126219
-0.126468
-0.1267
-0.126921
-0.127139
-0.12735
-0.127558
-0.127784
-0.128037
-0.128302
-0.128556
-0.128792
-0.129014
-0.129231
-0.129447
-0.129661
-0.129867
-0.130056
-0.130239
-0.130431
-0.13063
-0.130816
-0.130977
-0.13112
-0.131264
-0.131419
-0.131586
-0.131774
-0.131995
-0.132263
-0.0451796
-0.0485811
-0.0515976
-0.0545551
-0.0572954
-0.0595963
-0.0616049
-0.0635801
-0.0656595
-0.0678612
-0.0701465
-0.0724684
-0.0747938
-0.0770631
-0.0792667
-0.0813884
-0.0834775
-0.085503
-0.0874686
-0.0892813
-0.0909783
-0.0925692
-0.0940405
-0.0953635
-0.0965281
-0.0975492
-0.0984566
-0.0992359
-0.0998743
-0.100408
-0.100845
-0.101181
-0.101437
-0.10165
-0.101838
-0.102007
-0.102175
-0.102342
-0.102476
-0.102626
-0.102766
-0.102909
-0.103094
-0.10331
-0.103568
-0.103871
-0.104214
-0.104601
-0.10503
-0.105491
-0.105986
-0.10651
-0.107051
-0.10761
-0.108197
-0.108814
-0.109448
-0.110084
-0.110714
-0.111338
-0.111944
-0.112526
-0.113097
-0.113669
-0.114229
-0.114759
-0.115264
-0.115733
-0.116158
-0.11654
-0.11689
-0.117225
-0.117539
-0.11782
-0.118084
-0.118336
-0.118561
-0.118765
-0.11896
-0.119154
-0.119352
-0.11955
-0.119755
-0.119986
-0.120235
-0.120469
-0.120673
-0.12085
-0.120988
-0.121086
-0.121164
-0.121229
-0.121283
-0.121345
-0.121411
-0.121468
-0.121517
-0.121576
-0.121643
-0.121697
-0.121742
-0.121804
-0.121896
-0.122011
-0.122142
-0.122281
-0.122417
-0.122546
-0.122655
-0.12273
-0.122782
-0.122836
-0.122907
-0.122989
-0.123074
-0.123178
-0.12332
-0.123491
-0.12366
-0.123812
-0.123959
-0.124114
-0.124283
-0.124476
-0.124691
-0.12492
-0.125168
-0.125443
-0.125733
-0.126014
-0.12628
-0.126532
-0.126773
-0.127004
-0.127226
-0.127438
-0.127654
-0.127897
-0.128167
-0.128435
-0.128684
-0.12892
-0.129153
-0.129385
-0.129608
-0.129816
-0.130009
-0.130197
-0.130394
-0.130604
-0.130811
-0.130996
-0.13116
-0.131321
-0.131489
-0.131659
-0.131825
-0.131997
-0.132201
-0.132456
-0.0533341
-0.0555395
-0.0575875
-0.0597117
-0.0618116
-0.063677
-0.0653746
-0.0669981
-0.0687294
-0.0705967
-0.0725278
-0.0745692
-0.0766021
-0.0786152
-0.0805975
-0.0824797
-0.0843698
-0.0862341
-0.0880328
-0.0897538
-0.0913287
-0.0927955
-0.0941628
-0.0954124
-0.0965038
-0.0974781
-0.0983522
-0.0990958
-0.0997248
-0.100251
-0.100672
-0.101002
-0.101263
-0.101474
-0.101657
-0.101827
-0.102006
-0.102165
-0.102316
-0.102465
-0.102606
-0.10276
-0.102936
-0.10315
-0.103409
-0.103708
-0.104051
-0.10444
-0.104868
-0.10533
-0.105825
-0.106351
-0.106894
-0.107451
-0.108039
-0.108659
-0.109294
-0.109935
-0.110575
-0.111199
-0.111794
-0.112371
-0.112938
-0.113496
-0.114042
-0.114566
-0.115065
-0.115525
-0.115933
-0.116304
-0.116653
-0.116979
-0.11728
-0.117558
-0.117819
-0.118071
-0.118299
-0.118503
-0.118709
-0.118915
-0.119107
-0.119303
-0.119523
-0.119764
-0.120015
-0.120258
-0.120473
-0.120659
-0.120811
-0.120918
-0.120994
-0.121065
-0.121135
-0.121197
-0.121255
-0.121319
-0.12139
-0.121462
-0.121535
-0.121603
-0.121664
-0.121738
-0.12184
-0.121961
-0.122094
-0.122236
-0.122383
-0.122521
-0.122626
-0.122699
-0.12276
-0.122828
-0.122901
-0.122977
-0.123062
-0.123172
-0.123321
-0.123496
-0.123666
-0.123822
-0.123977
-0.124143
-0.124326
-0.124526
-0.12474
-0.124973
-0.125233
-0.125519
-0.125808
-0.126081
-0.126345
-0.126606
-0.126857
-0.127094
-0.127318
-0.127537
-0.127767
-0.128024
-0.128301
-0.128567
-0.128811
-0.12905
-0.129295
-0.129542
-0.129776
-0.129987
-0.130175
-0.130359
-0.130563
-0.130787
-0.131004
-0.131191
-0.131362
-0.131543
-0.131733
-0.131915
-0.132081
-0.132246
-0.132441
-0.132687
-0.0612473
-0.0622947
-0.0634384
-0.0647311
-0.0661902
-0.0676114
-0.0689678
-0.0703477
-0.0717502
-0.0732757
-0.0749249
-0.0766308
-0.0784137
-0.0802407
-0.0819708
-0.0837085
-0.0853837
-0.0870663
-0.08873
-0.0902937
-0.0917432
-0.093107
-0.0943722
-0.0955118
-0.0965394
-0.0974656
-0.0982877
-0.0990027
-0.0996153
-0.100115
-0.100524
-0.100851
-0.101103
-0.101305
-0.101486
-0.101663
-0.10183
-0.101983
-0.102149
-0.102289
-0.102429
-0.102589
-0.102766
-0.102983
-0.103239
-0.103535
-0.103883
-0.104279
-0.104709
-0.105171
-0.105667
-0.106189
-0.106727
-0.107284
-0.107876
-0.108496
-0.109127
-0.109768
-0.110413
-0.111034
-0.111621
-0.112196
-0.112765
-0.113312
-0.113845
-0.114369
-0.114862
-0.115309
-0.11571
-0.116076
-0.116419
-0.11673
-0.117013
-0.117287
-0.117549
-0.117789
-0.118015
-0.118231
-0.118443
-0.118651
-0.118846
-0.119043
-0.119275
-0.119533
-0.119786
-0.120031
-0.120267
-0.120472
-0.120626
-0.120737
-0.120829
-0.120909
-0.120977
-0.121038
-0.121097
-0.121166
-0.121248
-0.121333
-0.121412
-0.121487
-0.121568
-0.121663
-0.121771
-0.121894
-0.122036
-0.122193
-0.122347
-0.122484
-0.122591
-0.12267
-0.12274
-0.122814
-0.122889
-0.122963
-0.12305
-0.123169
-0.12333
-0.123507
-0.123675
-0.123837
-0.124009
-0.124192
-0.124383
-0.124585
-0.124805
-0.125048
-0.125319
-0.125607
-0.125891
-0.126161
-0.126428
-0.126697
-0.126955
-0.127195
-0.127423
-0.12765
-0.127893
-0.128161
-0.128441
-0.128703
-0.128943
-0.129186
-0.129444
-0.129702
-0.129942
-0.130158
-0.130354
-0.130545
-0.130752
-0.130976
-0.131195
-0.131388
-0.131573
-0.131774
-0.131983
-0.132174
-0.132343
-0.132512
-0.13271
-0.132958
-0.0687954
-0.0687336
-0.0690113
-0.0695997
-0.0703995
-0.0713594
-0.0723945
-0.0734863
-0.0746573
-0.0758919
-0.0772222
-0.0786668
-0.0802244
-0.0817989
-0.0834151
-0.0849926
-0.0865114
-0.0880243
-0.0895157
-0.090934
-0.0922687
-0.093494
-0.0946299
-0.0956759
-0.0966249
-0.097483
-0.0982569
-0.0989437
-0.0995216
-0.0999977
-0.100389
-0.100696
-0.100939
-0.101143
-0.101321
-0.101491
-0.101649
-0.101812
-0.101965
-0.102105
-0.102248
-0.102402
-0.102585
-0.102805
-0.103058
-0.103361
-0.103714
-0.104111
-0.104547
-0.105014
-0.105509
-0.106024
-0.106555
-0.107112
-0.107702
-0.108315
-0.108944
-0.109587
-0.110227
-0.110839
-0.111426
-0.112001
-0.112565
-0.113109
-0.113642
-0.114166
-0.114651
-0.115085
-0.115485
-0.115849
-0.116174
-0.116469
-0.116744
-0.117008
-0.117262
-0.117495
-0.117717
-0.117945
-0.118165
-0.118366
-0.118565
-0.118781
-0.119022
-0.119281
-0.119548
-0.119809
-0.120057
-0.120276
-0.120441
-0.120558
-0.12066
-0.120753
-0.120821
-0.120872
-0.120932
-0.121013
-0.121102
-0.121188
-0.121275
-0.121366
-0.121465
-0.121572
-0.121688
-0.121818
-0.121974
-0.122146
-0.122308
-0.122442
-0.12255
-0.122641
-0.122724
-0.1228
-0.12287
-0.122947
-0.123045
-0.123175
-0.123338
-0.123515
-0.123687
-0.123861
-0.124049
-0.124246
-0.124446
-0.124656
-0.124885
-0.125142
-0.125422
-0.12571
-0.125986
-0.126255
-0.12653
-0.126809
-0.127071
-0.127311
-0.127542
-0.12778
-0.128036
-0.128306
-0.128579
-0.128837
-0.129085
-0.129342
-0.129609
-0.129866
-0.130101
-0.130322
-0.130535
-0.130741
-0.13095
-0.131168
-0.131385
-0.131588
-0.131789
-0.132006
-0.132226
-0.132425
-0.132604
-0.13279
-0.133006
-0.133267
-0.0758479
-0.0748438
-0.0743029
-0.0742188
-0.0744785
-0.074969
-0.0756516
-0.0764576
-0.0774057
-0.0783909
-0.0794997
-0.0806732
-0.0819739
-0.0833971
-0.0848488
-0.0862691
-0.0876898
-0.0890537
-0.0903777
-0.0916609
-0.0928388
-0.0939263
-0.0949415
-0.0958783
-0.0967252
-0.0975106
-0.0982385
-0.0988836
-0.099424
-0.0998772
-0.100243
-0.100527
-0.100757
-0.100956
-0.101134
-0.101301
-0.101459
-0.101622
-0.101765
-0.101913
-0.102061
-0.102208
-0.102395
-0.102617
-0.102874
-0.103184
-0.103542
-0.103942
-0.104385
-0.104856
-0.105347
-0.105857
-0.106382
-0.106931
-0.107512
-0.10812
-0.108747
-0.109386
-0.110016
-0.11062
-0.111208
-0.111781
-0.112338
-0.112886
-0.113426
-0.113946
-0.114426
-0.114856
-0.115251
-0.11561
-0.115917
-0.116195
-0.116465
-0.116719
-0.116954
-0.117187
-0.117417
-0.117646
-0.117869
-0.118077
-0.118282
-0.118509
-0.118763
-0.119027
-0.119299
-0.119582
-0.119849
-0.120073
-0.120246
-0.120382
-0.120498
-0.120592
-0.120656
-0.120706
-0.120769
-0.120856
-0.120948
-0.121034
-0.12113
-0.121243
-0.121359
-0.121472
-0.121592
-0.121738
-0.121912
-0.122093
-0.122255
-0.122393
-0.122511
-0.122613
-0.122703
-0.122781
-0.122852
-0.122933
-0.123041
-0.12318
-0.123345
-0.12352
-0.123696
-0.123884
-0.124091
-0.1243
-0.124507
-0.124729
-0.124978
-0.125253
-0.12554
-0.125822
-0.126095
-0.126369
-0.126655
-0.126938
-0.127197
-0.127437
-0.127678
-0.127929
-0.128192
-0.128457
-0.128718
-0.128975
-0.129236
-0.12951
-0.129785
-0.130036
-0.13026
-0.130481
-0.130709
-0.130934
-0.131148
-0.131361
-0.131577
-0.131792
-0.132012
-0.13224
-0.132465
-0.132669
-0.132863
-0.133075
-0.133321
-0.133602
-0.0823544
-0.0805119
-0.0793238
-0.0786156
-0.0783899
-0.078465
-0.0788
-0.0793311
-0.0800265
-0.0808346
-0.0817
-0.0826876
-0.083769
-0.0849607
-0.086246
-0.0875627
-0.0888347
-0.0900607
-0.0912547
-0.0923772
-0.093408
-0.0943666
-0.0952438
-0.096054
-0.0968171
-0.097532
-0.0981916
-0.0987828
-0.0993014
-0.099736
-0.100076
-0.10034
-0.100557
-0.100747
-0.100922
-0.101084
-0.101251
-0.101406
-0.101556
-0.101708
-0.101854
-0.102015
-0.102204
-0.102425
-0.102691
-0.103008
-0.103368
-0.103775
-0.104225
-0.104697
-0.105182
-0.105685
-0.106205
-0.106743
-0.107308
-0.107911
-0.108538
-0.109165
-0.109784
-0.110386
-0.11097
-0.111537
-0.11209
-0.112642
-0.113189
-0.113704
-0.114178
-0.114613
-0.115004
-0.115347
-0.115645
-0.115914
-0.116171
-0.116414
-0.11664
-0.116869
-0.117111
-0.117345
-0.117564
-0.117781
-0.118005
-0.11824
-0.118495
-0.118768
-0.119057
-0.119353
-0.119629
-0.119862
-0.120048
-0.120203
-0.120331
-0.120423
-0.120485
-0.120541
-0.120612
-0.120696
-0.120785
-0.12088
-0.12099
-0.121116
-0.121243
-0.121365
-0.121494
-0.121652
-0.121842
-0.122034
-0.122198
-0.122338
-0.122468
-0.122586
-0.122683
-0.122758
-0.12283
-0.122924
-0.123044
-0.123183
-0.12334
-0.123515
-0.123705
-0.12391
-0.124128
-0.124346
-0.124566
-0.124809
-0.12508
-0.125369
-0.125661
-0.125944
-0.126221
-0.126504
-0.126795
-0.127076
-0.12733
-0.127572
-0.12782
-0.128083
-0.128351
-0.128614
-0.128867
-0.129122
-0.129393
-0.129681
-0.12996
-0.130206
-0.13042
-0.130638
-0.130876
-0.131117
-0.131342
-0.131558
-0.131776
-0.132005
-0.132241
-0.132477
-0.132703
-0.132914
-0.133127
-0.13337
-0.133646
-0.133954
-0.0882838
-0.0857322
-0.0839823
-0.0827701
-0.0820799
-0.0818237
-0.0818341
-0.0821056
-0.0825427
-0.0831811
-0.0838685
-0.0846587
-0.0855593
-0.0865516
-0.0876527
-0.0888091
-0.0899373
-0.0910306
-0.0920806
-0.0930443
-0.0939344
-0.0947403
-0.0954897
-0.0961982
-0.0968691
-0.0975012
-0.0981009
-0.0986483
-0.099131
-0.0995383
-0.0998697
-0.10013
-0.100334
-0.100513
-0.100686
-0.100856
-0.101026
-0.101177
-0.101339
-0.101496
-0.101646
-0.101818
-0.102012
-0.102242
-0.102516
-0.102833
-0.1032
-0.103615
-0.104064
-0.104533
-0.105015
-0.105514
-0.106025
-0.106549
-0.107104
-0.1077
-0.108317
-0.108931
-0.10954
-0.110141
-0.110716
-0.111271
-0.111828
-0.112384
-0.112926
-0.113439
-0.113915
-0.11435
-0.114735
-0.115064
-0.115355
-0.115623
-0.115869
-0.116095
-0.11632
-0.116558
-0.116802
-0.117037
-0.117265
-0.117495
-0.117729
-0.117969
-0.118226
-0.118511
-0.118815
-0.119119
-0.1194
-0.119645
-0.119849
-0.120016
-0.12015
-0.120245
-0.120311
-0.120374
-0.120452
-0.120539
-0.120626
-0.120726
-0.120853
-0.120993
-0.121123
-0.121245
-0.121388
-0.121568
-0.12177
-0.12196
-0.122128
-0.122285
-0.122432
-0.122558
-0.122653
-0.12273
-0.122815
-0.12292
-0.123041
-0.123175
-0.123329
-0.12351
-0.123712
-0.123929
-0.124157
-0.124387
-0.124627
-0.124892
-0.125184
-0.125484
-0.12578
-0.126068
-0.126354
-0.126647
-0.126943
-0.127219
-0.127468
-0.12771
-0.127967
-0.128234
-0.128501
-0.128761
-0.129017
-0.129281
-0.12956
-0.129847
-0.130121
-0.130362
-0.130579
-0.1308
-0.131041
-0.131286
-0.131523
-0.131753
-0.131988
-0.132232
-0.132479
-0.132715
-0.132938
-0.13316
-0.1334
-0.133673
-0.133976
-0.134306
-0.0936417
-0.0905435
-0.0882722
-0.0866313
-0.0855451
-0.0849638
-0.0847094
-0.0847227
-0.0849756
-0.0853774
-0.085934
-0.0865794
-0.0872913
-0.0881305
-0.0890449
-0.0900215
-0.0910107
-0.0919557
-0.0928351
-0.0936452
-0.094384
-0.0950491
-0.0956741
-0.0962727
-0.0968508
-0.0974174
-0.0979638
-0.0984661
-0.0989082
-0.0992951