/*--------------------------------*- C++ -*----------------------------------*\
  =========                 |
  \\      /  F ield         | OpenFOAM: The Open Source CFD Toolbox
   \\    /   O peration     | Website:  https://openfoam.org
    \\  /    A nd           | Version:  7
     \\/     M anipulation  |
\*---------------------------------------------------------------------------*/
FoamFile
{
    version     2.0;
    format      ascii;
    class       volVectorField;
    location    "0.05";
    object      U;
}
// * * * * * * * * * * * * * * * * * * * * * * * * * * * * * * * * * * * * * //

dimensions      [0 1 -1 0 0 0 0];

internalField   nonuniform List<vector> 
51200
(
(-5.80565e-06 -9.54887e-06 0)
(1.23648e-05 -3.83666e-05 0)
(7.846e-05 -7.06726e-05 0)
(0.000193217 -9.04427e-05 0)
(0.000330175 -9.89132e-05 0)
(0.000471362 -9.92176e-05 0)
(0.000607685 -9.3767e-05 0)
(0.000731858 -8.42317e-05 0)
(0.000837967 -7.1101e-05 0)
(0.000923163 -5.6474e-05 0)
(0.000987031 -4.14367e-05 0)
(0.00102838 -2.60415e-05 0)
(0.00104784 -1.06357e-05 0)
(0.00104738 3.38413e-06 0)
(0.00102962 1.52855e-05 0)
(0.000997175 2.49982e-05 0)
(0.000951288 3.3718e-05 0)
(0.000897116 4.0093e-05 0)
(0.000835315 4.4987e-05 0)
(0.000768297 4.89479e-05 0)
(0.000699043 5.04381e-05 0)
(0.000629473 5.02416e-05 0)
(0.000560822 4.93013e-05 0)
(0.000495013 4.69017e-05 0)
(0.00043371 4.42616e-05 0)
(0.00037657 4.1079e-05 0)
(0.000325877 3.70406e-05 0)
(0.000281129 3.32008e-05 0)
(0.000241862 2.94267e-05 0)
(0.000208631 2.59137e-05 0)
(0.000181038 2.24767e-05 0)
(0.000158165 1.90065e-05 0)
(0.000140137 1.53695e-05 0)
(0.000126681 1.26677e-05 0)
(0.000117189 9.83021e-06 0)
(0.00011049 7.4852e-06 0)
(0.000107416 5.89531e-06 0)
(0.000106077 3.86691e-06 0)
(0.000106402 2.44789e-06 0)
(0.000109104 1.6411e-06 0)
(0.000111353 9.28211e-07 0)
(0.000115165 2.31521e-07 0)
(0.0001197 -1.579e-07 0)
(0.000124178 -4.96303e-07 0)
(0.000129429 -1.15066e-06 0)
(0.000134606 -1.17092e-06 0)
(0.000139983 -8.66573e-07 0)
(0.000144987 -1.14598e-06 0)
(0.000149815 -1.51934e-06 0)
(0.000154814 -1.51034e-06 0)
(0.000159096 -1.74519e-06 0)
(0.000163071 -2.06786e-06 0)
(0.000167359 -1.89117e-06 0)
(0.000171321 -1.77896e-06 0)
(0.000174852 -2.07208e-06 0)
(0.000178686 -2.07058e-06 0)
(0.00018235 -1.3933e-06 0)
(0.000185059 -6.7209e-07 0)
(0.000187384 -1.1836e-07 0)
(0.000189498 4.53178e-07 0)
(0.000190946 4.79922e-07 0)
(0.000191831 -1.27435e-07 0)
(0.00019249 -4.81744e-07 0)
(0.000192813 -1.45019e-07 0)
(0.000192456 4.94184e-07 0)
(0.000191591 1.15299e-06 0)
(0.000190491 1.8525e-06 0)
(0.000188863 2.41313e-06 0)
(0.000186441 2.53228e-06 0)
(0.000183539 2.36436e-06 0)
(0.000180263 2.46136e-06 0)
(0.000176517 2.77537e-06 0)
(0.000172476 3.01394e-06 0)
(0.000168216 3.28406e-06 0)
(0.000163889 3.54724e-06 0)
(0.000159416 3.65979e-06 0)
(0.000154615 3.58194e-06 0)
(0.000149687 3.47578e-06 0)
(0.000144767 3.48975e-06 0)
(0.00013986 3.49072e-06 0)
(0.000134929 3.39323e-06 0)
(0.000130119 3.20598e-06 0)
(0.000125514 3.07623e-06 0)
(0.000120828 3.08127e-06 0)
(0.000116015 2.99866e-06 0)
(0.000111234 2.81758e-06 0)
(0.000106571 2.66098e-06 0)
(0.000102139 2.45582e-06 0)
(9.80765e-05 2.07536e-06 0)
(9.47e-05 1.46006e-06 0)
(9.22031e-05 8.13429e-07 0)
(9.05877e-05 2.73164e-07 0)
(8.99331e-05 -3.06828e-07 0)
(9.00988e-05 -8.72886e-07 0)
(9.09312e-05 -1.31282e-06 0)
(9.23738e-05 -1.63816e-06 0)
(9.41079e-05 -1.79227e-06 0)
(9.59896e-05 -1.88506e-06 0)
(9.80536e-05 -1.9884e-06 0)
(0.000100102 -1.92415e-06 0)
(0.000102103 -1.77222e-06 0)
(0.000104041 -1.67293e-06 0)
(0.000105601 -1.4744e-06 0)
(0.000106713 -1.1683e-06 0)
(0.000107381 -7.99205e-07 0)
(0.000107321 -2.6185e-07 0)
(0.000106509 2.76639e-07 0)
(0.000105148 6.04459e-07 0)
(0.000103297 8.43067e-07 0)
(0.000101225 1.00303e-06 0)
(9.92754e-05 9.8146e-07 0)
(9.74272e-05 9.28587e-07 0)
(9.57228e-05 9.19777e-07 0)
(9.43114e-05 8.85694e-07 0)
(9.28868e-05 9.98278e-07 0)
(9.10105e-05 1.3889e-06 0)
(8.85611e-05 1.88391e-06 0)
(8.53486e-05 2.4245e-06 0)
(8.11131e-05 3.09214e-06 0)
(7.59431e-05 3.74247e-06 0)
(7.00351e-05 4.19178e-06 0)
(6.34851e-05 4.46269e-06 0)
(5.66124e-05 4.59087e-06 0)
(4.98552e-05 4.56026e-06 0)
(4.33947e-05 4.41301e-06 0)
(3.73327e-05 4.1697e-06 0)
(3.19126e-05 3.76099e-06 0)
(2.73149e-05 3.18029e-06 0)
(2.35208e-05 2.58248e-06 0)
(2.05088e-05 2.06772e-06 0)
(1.83768e-05 1.55952e-06 0)
(1.70899e-05 1.06139e-06 0)
(1.64519e-05 6.53406e-07 0)
(1.64556e-05 2.94593e-07 0)
(1.70849e-05 -1.17227e-09 0)
(1.8035e-05 -1.62013e-07 0)
(1.90817e-05 -2.26926e-07 0)
(2.01383e-05 -1.85126e-07 0)
(2.10286e-05 1.55785e-08 0)
(2.15429e-05 3.52601e-07 0)
(2.15077e-05 7.38096e-07 0)
(2.09382e-05 1.05503e-06 0)
(1.99111e-05 1.32107e-06 0)
(1.83897e-05 1.58638e-06 0)
(1.64585e-05 1.83608e-06 0)
(1.41885e-05 2.12498e-06 0)
(1.15453e-05 2.42944e-06 0)
(8.53682e-06 2.68968e-06 0)
(5.16001e-06 2.93777e-06 0)
(1.52334e-06 3.16716e-06 0)
(-2.28808e-06 3.37743e-06 0)
(-6.29407e-06 3.52554e-06 0)
(-1.02903e-05 3.4794e-06 0)
(-1.39501e-05 3.25519e-06 0)
(-1.70429e-05 2.93684e-06 0)
(-1.92021e-05 2.29885e-06 0)
(-1.95823e-05 1.08762e-06 0)
(-1.73374e-05 -8.29209e-07 0)
(-1.06419e-05 -3.55688e-06 0)
(-3.7518e-06 -3.38339e-06 0)
(-3.48821e-05 2.97504e-06 0)
(-4.92989e-05 -5.85888e-05 0)
(-3.47355e-06 -0.000152832 0)
(0.000117105 -0.000212738 0)
(0.000280634 -0.000237353 0)
(0.000459045 -0.000239653 0)
(0.000636841 -0.000225315 0)
(0.000802584 -0.000200228 0)
(0.000949323 -0.000167873 0)
(0.00107224 -0.000131196 0)
(0.00116814 -9.30662e-05 0)
(0.00123632 -5.57449e-05 0)
(0.00127788 -1.93966e-05 0)
(0.00129439 1.27527e-05 0)
(0.00128676 4.1848e-05 0)
(0.00125983 6.56085e-05 0)
(0.00121677 8.44145e-05 0)
(0.00115776 9.93849e-05 0)
(0.00108886 0.000110425 0)
(0.00101262 0.000116921 0)
(0.000931399 0.000120171 0)
(0.000849235 0.000119816 0)
(0.00076708 0.000115328 0)
(0.000686364 0.000110654 0)
(0.000609894 0.000102328 0)
(0.000538971 9.35834e-05 0)
(0.000474116 8.37243e-05 0)
(0.000415857 7.33732e-05 0)
(0.000364765 6.32745e-05 0)
(0.000320343 5.38004e-05 0)
(0.000282358 4.47361e-05 0)
(0.000251173 3.58554e-05 0)
(0.000226595 2.83492e-05 0)
(0.000206788 2.00944e-05 0)
(0.000191508 1.44531e-05 0)
(0.000182125 8.60818e-06 0)
(0.000175269 4.58537e-06 0)
(0.000171869 4.61009e-07 0)
(0.00017153 -2.10421e-06 0)
(0.000172093 -4.09884e-06 0)
(0.000175387 -6.15219e-06 0)
(0.00017918 -6.80491e-06 0)
(0.000183794 -7.97363e-06 0)
(0.000189714 -8.70994e-06 0)
(0.000195872 -9.2373e-06 0)
(0.000202666 -9.39483e-06 0)
(0.00020916 -9.27428e-06 0)
(0.00021586 -8.96521e-06 0)
(0.000222897 -8.41205e-06 0)
(0.000229179 -8.1072e-06 0)
(0.000235208 -7.94844e-06 0)
(0.000241378 -7.66128e-06 0)
(0.000246988 -7.31469e-06 0)
(0.000252284 -7.22255e-06 0)
(0.000257719 -7.07719e-06 0)
(0.000262873 -6.62173e-06 0)
(0.000267445 -6.11378e-06 0)
(0.000271372 -5.27052e-06 0)
(0.000274703 -4.09697e-06 0)
(0.000277435 -2.85495e-06 0)
(0.000279541 -1.94434e-06 0)
(0.000281115 -1.46895e-06 0)
(0.000282137 -9.9041e-07 0)
(0.000282488 -4.05173e-07 0)
(0.000282107 2.1302e-07 0)
(0.000281119 1.10046e-06 0)
(0.000279533 2.37539e-06 0)
(0.000277344 3.59129e-06 0)
(0.00027449 4.5447e-06 0)
(0.000270862 5.31153e-06 0)
(0.000266635 5.93395e-06 0)
(0.000261856 6.44348e-06 0)
(0.000256535 6.72487e-06 0)
(0.000250834 7.12338e-06 0)
(0.000244953 7.70932e-06 0)
(0.000238967 8.11647e-06 0)
(0.000232675 8.31673e-06 0)
(0.000226073 8.40993e-06 0)
(0.000219323 8.54823e-06 0)
(0.000212518 8.56078e-06 0)
(0.000205648 8.33938e-06 0)
(0.000198643 8.21062e-06 0)
(0.000191717 8.2219e-06 0)
(0.000184986 8.29407e-06 0)
(0.000178267 8.26888e-06 0)
(0.000171544 8.06723e-06 0)
(0.000165012 7.83845e-06 0)
(0.000159059 7.33448e-06 0)
(0.000153752 6.33862e-06 0)
(0.000148866 5.02715e-06 0)
(0.000144868 3.53554e-06 0)
(0.000142182 2.031e-06 0)
(0.000140429 5.42755e-07 0)
(0.000139432 -8.86131e-07 0)
(0.000139324 -1.91276e-06 0)
(0.000140068 -2.55531e-06 0)
(0.00014144 -3.0694e-06 0)
(0.000142919 -3.39086e-06 0)
(0.000144347 -3.51868e-06 0)
(0.000146044 -3.48904e-06 0)
(0.000147692 -3.20861e-06 0)
(0.000148813 -2.78829e-06 0)
(0.00014958 -2.26069e-06 0)
(0.000149938 -1.42527e-06 0)
(0.000149616 -3.55681e-07 0)
(0.000148679 7.49862e-07 0)
(0.000147008 1.85769e-06 0)
(0.000144581 2.78281e-06 0)
(0.000141868 3.30677e-06 0)
(0.000138963 3.49835e-06 0)
(0.000135726 3.43162e-06 0)
(0.00013252 3.11618e-06 0)
(0.000129456 2.80452e-06 0)
(0.000126173 2.81618e-06 0)
(0.000122695 3.22226e-06 0)
(0.000118959 3.99877e-06 0)
(0.000114353 5.17198e-06 0)
(0.000108715 6.66439e-06 0)
(0.000102336 8.25639e-06 0)
(9.50194e-05 9.73894e-06 0)
(8.6638e-05 1.09353e-05 0)
(7.77373e-05 1.16424e-05 0)
(6.86375e-05 1.17836e-05 0)
(5.92997e-05 1.15231e-05 0)
(5.02157e-05 1.09859e-05 0)
(4.19312e-05 1.00898e-05 0)
(3.42786e-05 8.85466e-06 0)
(2.72474e-05 7.48539e-06 0)
(2.14181e-05 6.07286e-06 0)
(1.68841e-05 4.60304e-06 0)
(1.31769e-05 3.13546e-06 0)
(1.03024e-05 1.77678e-06 0)
(8.56366e-06 6.10806e-07 0)
(7.75333e-06 -3.57443e-07 0)
(7.43783e-06 -1.105e-06 0)
(7.52112e-06 -1.53543e-06 0)
(7.92139e-06 -1.6894e-06 0)
(8.21953e-06 -1.58162e-06 0)
(8.16012e-06 -1.06973e-06 0)
(7.88002e-06 -2.40134e-07 0)
(7.26277e-06 6.5897e-07 0)
(5.92192e-06 1.49255e-06 0)
(3.87985e-06 2.244e-06 0)
(1.46802e-06 2.98355e-06 0)
(-1.24684e-06 3.66866e-06 0)
(-4.4505e-06 4.29476e-06 0)
(-8.09839e-06 4.93111e-06 0)
(-1.19335e-05 5.4909e-06 0)
(-1.59908e-05 5.97197e-06 0)
(-2.03539e-05 6.3944e-06 0)
(-2.47393e-05 6.67822e-06 0)
(-2.88472e-05 6.72752e-06 0)
(-3.25442e-05 6.34528e-06 0)
(-3.56124e-05 5.42683e-06 0)
(-3.75491e-05 3.95163e-06 0)
(-3.75216e-05 1.70348e-06 0)
(-3.46579e-05 -1.94954e-06 0)
(-2.83787e-05 -7.79886e-06 0)
(-1.69665e-05 -1.46589e-05 0)
(-5.119e-06 -1.0727e-05 0)
(-6.99823e-05 6.52695e-05 0)
(-0.000150506 -1.56455e-05 0)
(-0.000195676 -0.000197158 0)
(-0.000159678 -0.000317191 0)
(-7.36116e-05 -0.000374041 0)
(3.27322e-05 -0.000387744 0)
(0.000148806 -0.000372699 0)
(0.000262799 -0.000337727 0)
(0.000368133 -0.000288534 0)
(0.00046184 -0.000232648 0)
(0.000541283 -0.000173103 0)
(0.000605121 -0.000113342 0)
(0.000652331 -5.61701e-05 0)
(0.000684669 -2.90583e-06 0)
(0.000702875 4.27397e-05 0)
(0.000706228 8.37973e-05 0)
(0.000698465 0.000116371 0)
(0.000682474 0.000141655 0)
(0.000655804 0.00016091 0)
(0.000622738 0.000174489 0)
(0.000586495 0.000180843 0)
(0.000545719 0.000182642 0)
(0.000505046 0.000179337 0)
(0.000463438 0.000171458 0)
(0.000421404 0.000161455 0)
(0.000382128 0.000148605 0)
(0.000344867 0.000134024 0)
(0.000310309 0.000118329 0)
(0.000278839 0.000103662 0)
(0.00025103 8.81799e-05 0)
(0.000226689 7.41022e-05 0)
(0.000206545 6.09052e-05 0)
(0.000188538 4.76313e-05 0)
(0.000174724 3.66663e-05 0)
(0.000164337 2.58551e-05 0)
(0.000155106 1.75885e-05 0)
(0.000149523 9.53726e-06 0)
(0.000145397 4.03809e-06 0)
(0.000143285 -9.41106e-07 0)
(0.000142769 -5.17565e-06 0)
(0.000143458 -7.4027e-06 0)
(0.00014527 -1.03744e-05 0)
(0.00014738 -1.18748e-05 0)
(0.000150789 -1.32573e-05 0)
(0.000154554 -1.43645e-05 0)
(0.000158155 -1.49385e-05 0)
(0.000162602 -1.50755e-05 0)
(0.000167177 -1.46969e-05 0)
(0.000171251 -1.42412e-05 0)
(0.000175737 -1.35787e-05 0)
(0.000180309 -1.28216e-05 0)
(0.000184345 -1.24233e-05 0)
(0.000188444 -1.20172e-05 0)
(0.000192398 -1.13648e-05 0)
(0.000195775 -1.08622e-05 0)
(0.000199168 -1.02503e-05 0)
(0.000202642 -9.35721e-06 0)
(0.000205495 -8.3715e-06 0)
(0.000207736 -7.13595e-06 0)
(0.000209768 -5.58026e-06 0)
(0.000211278 -3.90829e-06 0)
(0.00021215 -2.37701e-06 0)
(0.000212924 -1.01097e-06 0)
(0.000213501 2.21655e-07 0)
(0.00021336 1.28743e-06 0)
(0.000212729 2.35052e-06 0)
(0.000211798 3.76677e-06 0)
(0.000210293 5.48401e-06 0)
(0.000208326 7.10982e-06 0)
(0.000206075 8.65706e-06 0)
(0.000203549 1.00098e-05 0)
(0.000200662 1.09066e-05 0)
(0.000197241 1.14933e-05 0)
(0.000193514 1.20783e-05 0)
(0.000189693 1.27969e-05 0)
(0.000185645 1.34099e-05 0)
(0.000181303 1.39012e-05 0)
(0.00017689 1.43386e-05 0)
(0.000172508 1.45718e-05 0)
(0.000167794 1.46339e-05 0)
(0.000162759 1.45266e-05 0)
(0.000157795 1.43906e-05 0)
(0.0001529 1.44107e-05 0)
(0.000147956 1.44137e-05 0)
(0.000142998 1.42944e-05 0)
(0.000138296 1.39802e-05 0)
(0.000133926 1.34122e-05 0)
(0.000129692 1.2524e-05 0)
(0.000125777 1.10327e-05 0)
(0.000122223 9.07227e-06 0)
(0.000118981 6.9642e-06 0)
(0.000116314 4.66541e-06 0)
(0.000113975 2.37668e-06 0)
(0.000111863 3.71606e-07 0)
(0.000110394 -1.29362e-06 0)
(0.000109341 -2.42001e-06 0)
(0.000108501 -3.12581e-06 0)
(0.000107979 -3.70068e-06 0)
(0.000107417 -3.93625e-06 0)
(0.00010683 -3.77768e-06 0)
(0.000106373 -3.43354e-06 0)
(0.000105527 -2.76364e-06 0)
(0.000104322 -1.75777e-06 0)
(0.000103146 -5.77608e-07 0)
(0.000101651 9.31964e-07 0)
(9.97789e-05 2.64179e-06 0)
(9.7829e-05 4.09594e-06 0)
(9.55238e-05 5.30134e-06 0)
(9.29145e-05 6.28472e-06 0)
(9.04355e-05 6.7061e-06 0)
(8.77015e-05 6.64176e-06 0)
(8.43784e-05 6.50047e-06 0)
(8.0965e-05 6.37863e-06 0)
(7.75042e-05 6.48522e-06 0)
(7.35474e-05 7.25047e-06 0)
(6.92607e-05 8.61891e-06 0)
(6.48315e-05 1.03015e-05 0)
(5.993e-05 1.23641e-05 0)
(5.45947e-05 1.47181e-05 0)
(4.91483e-05 1.68472e-05 0)
(4.33908e-05 1.84481e-05 0)
(3.71696e-05 1.9501e-05 0)
(3.0903e-05 1.98579e-05 0)
(2.47968e-05 1.94574e-05 0)
(1.86591e-05 1.85098e-05 0)
(1.26039e-05 1.71382e-05 0)
(6.96675e-06 1.53282e-05 0)
(1.82153e-06 1.32225e-05 0)
(-2.87357e-06 1.10494e-05 0)
(-7.0261e-06 8.85476e-06 0)
(-1.05612e-05 6.6016e-06 0)
(-1.36195e-05 4.44276e-06 0)
(-1.631e-05 2.5893e-06 0)
(-1.84843e-05 1.0772e-06 0)
(-2.01725e-05 -6.85592e-08 0)
(-2.17135e-05 -7.73035e-07 0)
(-2.32461e-05 -1.0453e-06 0)
(-2.46936e-05 -8.81379e-07 0)
(-2.60391e-05 -2.35831e-07 0)
(-2.73887e-05 8.22318e-07 0)
(-2.89119e-05 2.06075e-06 0)
(-3.06286e-05 3.25432e-06 0)
(-3.25016e-05 4.37285e-06 0)
(-3.45446e-05 5.44076e-06 0)
(-3.66872e-05 6.42034e-06 0)
(-3.88915e-05 7.30174e-06 0)
(-4.11377e-05 8.07612e-06 0)
(-4.33731e-05 8.70823e-06 0)
(-4.55441e-05 9.1776e-06 0)
(-4.74075e-05 9.46052e-06 0)
(-4.87553e-05 9.45547e-06 0)
(-4.9598e-05 8.97948e-06 0)
(-4.97647e-05 7.824e-06 0)
(-4.88957e-05 5.78966e-06 0)
(-4.66506e-05 2.75252e-06 0)
(-4.26588e-05 -1.64392e-06 0)
(-3.63314e-05 -8.17199e-06 0)
(-2.73563e-05 -1.7761e-05 0)
(-1.51866e-05 -2.84068e-05 0)
(-4.12697e-06 -2.03617e-05 0)
(-9.17669e-05 0.000180498 0)
(-0.000215836 0.000106097 0)
(-0.000323201 -0.00015973 0)
(-0.00035114 -0.000343298 0)
(-0.000325612 -0.000437124 0)
(-0.000275567 -0.000470347 0)
(-0.000211951 -0.000461934 0)
(-0.00014136 -0.000427092 0)
(-7.13094e-05 -0.000373649 0)
(-4.96691e-06 -0.000309415 0)
(5.67238e-05 -0.000239644 0)
(0.000111254 -0.000169469 0)
(0.000159499 -0.000101382 0)
(0.000198865 -3.75548e-05 0)
(0.000230791 1.98107e-05 0)
(0.000256233 6.92553e-05 0)
(0.000273522 0.000111132 0)
(0.000284367 0.000145221 0)
(0.000291203 0.000169753 0)
(0.000291326 0.000188555 0)
(0.000287033 0.000199505 0)
(0.000281177 0.000203765 0)
(0.000270963 0.000203463 0)
(0.000259438 0.000196528 0)
(0.000246815 0.000186981 0)
(0.000232561 0.000173405 0)
(0.000217713 0.000157938 0)
(0.000203882 0.000142097 0)
(0.000189953 0.00012415 0)
(0.000176238 0.000107902 0)
(0.000164603 9.10588e-05 0)
(0.000152819 7.56788e-05 0)
(0.000143849 6.06919e-05 0)
(0.000135167 4.77404e-05 0)
(0.000127271 3.51471e-05 0)
(0.000122087 2.44504e-05 0)
(0.0001168 1.55139e-05 0)
(0.000113489 7.88362e-06 0)
(0.00011016 1.61325e-06 0)
(0.000108619 -3.18599e-06 0)
(0.000108394 -7.10464e-06 0)
(0.000107761 -1.06627e-05 0)
(0.000108638 -1.28327e-05 0)
(0.000109585 -1.4663e-05 0)
(0.000110845 -1.62423e-05 0)
(0.000112832 -1.69751e-05 0)
(0.000114772 -1.73062e-05 0)
(0.000116975 -1.75743e-05 0)
(0.000119609 -1.72552e-05 0)
(0.000122082 -1.65124e-05 0)
(0.000124405 -1.60197e-05 0)
(0.000127032 -1.55131e-05 0)
(0.000129746 -1.48659e-05 0)
(0.000131941 -1.4289e-05 0)
(0.000133865 -1.34686e-05 0)
(0.000135827 -1.21935e-05 0)
(0.000137519 -1.08742e-05 0)
(0.000139114 -9.71939e-06 0)
(0.000140833 -8.341e-06 0)
(0.000142342 -6.78424e-06 0)
(0.000143343 -5.21787e-06 0)
(0.000143922 -3.36806e-06 0)
(0.000144327 -1.31219e-06 0)
(0.000144486 4.48665e-07 0)
(0.000144306 1.94486e-06 0)
(0.000144124 3.4641e-06 0)
(0.000143852 5.07122e-06 0)
(0.000143065 6.7837e-06 0)
(0.000142059 8.57769e-06 0)
(0.000140982 1.04422e-05 0)
(0.000139563 1.21674e-05 0)
(0.000137897 1.34379e-05 0)
(0.000136132 1.43551e-05 0)
(0.000134252 1.51773e-05 0)
(0.000132075 1.60307e-05 0)
(0.000129685 1.67553e-05 0)
(0.000127294 1.73446e-05 0)
(0.000124717 1.7986e-05 0)
(0.000121991 1.84077e-05 0)
(0.000119175 1.84887e-05 0)
(0.000116164 1.85083e-05 0)
(0.000113056 1.85231e-05 0)
(0.000109882 1.85369e-05 0)
(0.000106731 1.84439e-05 0)
(0.000103677 1.81693e-05 0)
(0.000100699 1.77841e-05 0)
(9.79136e-05 1.70518e-05 0)
(9.52845e-05 1.582e-05 0)
(9.27435e-05 1.41688e-05 0)
(9.02198e-05 1.20927e-05 0)
(8.7653e-05 9.78352e-06 0)
(8.52647e-05 7.35087e-06 0)
(8.2912e-05 4.81038e-06 0)
(8.03417e-05 2.57054e-06 0)
(7.79933e-05 8.14053e-07 0)
(7.60086e-05 -5.9369e-07 0)
(7.3976e-05 -1.53997e-06 0)
(7.19023e-05 -2.09637e-06 0)
(6.99659e-05 -2.40043e-06 0)
(6.81361e-05 -2.25368e-06 0)
(6.62843e-05 -1.75549e-06 0)
(6.41701e-05 -1.092e-06 0)
(6.18657e-05 3.93858e-09 0)
(5.97426e-05 1.50297e-06 0)
(5.77116e-05 3.06599e-06 0)
(5.5452e-05 4.73188e-06 0)
(5.31362e-05 6.40552e-06 0)
(5.10308e-05 7.71651e-06 0)
(4.89243e-05 8.71169e-06 0)
(4.6541e-05 9.46498e-06 0)
(4.39343e-05 9.72834e-06 0)
(4.11142e-05 9.69328e-06 0)
(3.79168e-05 9.89769e-06 0)
(3.4419e-05 1.04501e-05 0)
(3.07909e-05 1.13476e-05 0)
(2.691e-05 1.28171e-05 0)
(2.28046e-05 1.48115e-05 0)
(1.88675e-05 1.70299e-05 0)
(1.51226e-05 1.9348e-05 0)
(1.12196e-05 2.15814e-05 0)
(7.25644e-06 2.33286e-05 0)
(3.52853e-06 2.43853e-05 0)
(-1.99764e-07 2.47915e-05 0)
(-4.1711e-06 2.45155e-05 0)
(-8.06726e-06 2.35028e-05 0)
(-1.175e-05 2.18817e-05 0)
(-1.55829e-05 1.98728e-05 0)
(-1.94977e-05 1.75953e-05 0)
(-2.30148e-05 1.51312e-05 0)
(-2.62861e-05 1.26225e-05 0)
(-2.9716e-05 1.01243e-05 0)
(-3.30519e-05 7.67529e-06 0)
(-3.5974e-05 5.5087e-06 0)
(-3.87084e-05 3.78853e-06 0)
(-4.15074e-05 2.46436e-06 0)
(-4.42476e-05 1.55079e-06 0)
(-4.6778e-05 1.14189e-06 0)
(-4.92256e-05 1.27529e-06 0)
(-5.15953e-05 1.88915e-06 0)
(-5.36652e-05 2.83583e-06 0)
(-5.55388e-05 3.98724e-06 0)
(-5.74594e-05 5.19387e-06 0)
(-5.93194e-05 6.3297e-06 0)
(-6.08951e-05 7.39618e-06 0)
(-6.22235e-05 8.35994e-06 0)
(-6.35176e-05 9.15406e-06 0)
(-6.46834e-05 9.73454e-06 0)
(-6.53865e-05 1.00535e-05 0)
(-6.55855e-05 1.0149e-05 0)
(-6.53285e-05 9.96533e-06 0)
(-6.43975e-05 9.26496e-06 0)
(-6.25747e-05 7.91152e-06 0)
(-5.98385e-05 5.77188e-06 0)
(-5.60588e-05 2.55005e-06 0)
(-5.09604e-05 -1.9504e-06 0)
(-4.43237e-05 -8.18593e-06 0)
(-3.58841e-05 -1.67976e-05 0)
(-2.56116e-05 -2.87877e-05 0)
(-1.34455e-05 -4.12064e-05 0)
(-3.52666e-06 -2.82131e-05 0)
(-0.000101638 0.00032019 0)
(-0.000244039 0.000273584 0)
(-0.000385156 -7.14523e-05 0)
(-0.000449847 -0.000316927 0)
(-0.00046086 -0.000448619 0)
(-0.000446523 -0.000503 0)
(-0.000415092 -0.000507936 0)
(-0.000374486 -0.000476848 0)
(-0.000328452 -0.000426352 0)
(-0.000280461 -0.000360653 0)
(-0.000232886 -0.000289714 0)
(-0.000186574 -0.000215832 0)
(-0.000142033 -0.000143317 0)
(-9.99117e-05 -7.65822e-05 0)
(-6.15341e-05 -1.38311e-05 0)
(-2.78012e-05 4.03639e-05 0)
(3.63943e-06 8.7066e-05 0)
(3.10922e-05 0.000124316 0)
(5.38565e-05 0.000155099 0)
(7.37412e-05 0.000175755 0)
(8.94233e-05 0.000191083 0)
(0.000102228 0.000198522 0)
(0.000112245 0.000199494 0)
(0.000119212 0.000196791 0)
(0.000123346 0.000187996 0)
(0.000125256 0.000176736 0)
(0.000126758 0.000162757 0)
(0.000124663 0.000146804 0)
(0.000121968 0.000130567 0)
(0.000119174 0.000113512 0)
(0.000114821 9.72791e-05 0)
(0.00011126 8.05671e-05 0)
(0.000106385 6.64977e-05 0)
(0.000102063 5.14944e-05 0)
(9.79199e-05 3.96051e-05 0)
(9.37424e-05 2.81526e-05 0)
(9.0557e-05 1.81926e-05 0)
(8.69024e-05 1.02132e-05 0)
(8.44299e-05 2.93216e-06 0)
(8.25083e-05 -1.84578e-06 0)
(8.03841e-05 -7.16954e-06 0)
(7.96955e-05 -1.03306e-05 0)
(7.90982e-05 -1.3358e-05 0)
(7.84998e-05 -1.59586e-05 0)
(7.86622e-05 -1.71292e-05 0)
(7.88016e-05 -1.82103e-05 0)
(7.91152e-05 -1.89673e-05 0)
(7.99793e-05 -1.89833e-05 0)
(8.10443e-05 -1.88593e-05 0)
(8.20871e-05 -1.86361e-05 0)
(8.32003e-05 -1.80307e-05 0)
(8.44499e-05 -1.72748e-05 0)
(8.57727e-05 -1.67653e-05 0)
(8.70052e-05 -1.62185e-05 0)
(8.81277e-05 -1.52564e-05 0)
(8.91173e-05 -1.40779e-05 0)
(8.97957e-05 -1.26206e-05 0)
(9.04009e-05 -1.07978e-05 0)
(9.11415e-05 -8.96324e-06 0)
(9.18403e-05 -7.35817e-06 0)
(9.2505e-05 -5.77018e-06 0)
(9.3142e-05 -4.00418e-06 0)
(9.35066e-05 -2.12188e-06 0)
(9.35263e-05 -2.63342e-07 0)
(9.3363e-05 1.69635e-06 0)
(9.32118e-05 3.78395e-06 0)
(9.30303e-05 5.64944e-06 0)
(9.26194e-05 7.39099e-06 0)
(9.22546e-05 9.26176e-06 0)
(9.19942e-05 1.11048e-05 0)
(9.14358e-05 1.27367e-05 0)
(9.05947e-05 1.41621e-05 0)
(8.96741e-05 1.551e-05 0)
(8.88136e-05 1.6647e-05 0)
(8.78096e-05 1.75019e-05 0)
(8.64879e-05 1.83213e-05 0)
(8.52262e-05 1.90782e-05 0)
(8.39905e-05 1.97475e-05 0)
(8.24903e-05 2.02603e-05 0)
(8.07994e-05 2.0488e-05 0)
(7.9032e-05 2.06817e-05 0)
(7.72914e-05 2.08365e-05 0)
(7.5473e-05 2.07974e-05 0)
(7.34778e-05 2.06821e-05 0)
(7.15958e-05 2.04056e-05 0)
(6.99378e-05 1.99226e-05 0)
(6.82607e-05 1.91549e-05 0)
(6.65129e-05 1.78515e-05 0)
(6.48118e-05 1.61775e-05 0)
(6.30765e-05 1.42563e-05 0)
(6.11526e-05 1.19998e-05 0)
(5.89832e-05 9.63137e-06 0)
(5.65951e-05 7.29128e-06 0)
(5.41458e-05 5.10123e-06 0)
(5.16854e-05 3.35698e-06 0)
(4.91364e-05 1.9704e-06 0)
(4.65713e-05 8.61148e-07 0)
(4.40026e-05 2.7533e-07 0)
(4.1427e-05 1.14373e-07 0)
(3.89439e-05 1.97834e-07 0)
(3.63788e-05 6.56122e-07 0)
(3.36766e-05 1.42979e-06 0)
(3.11485e-05 2.4427e-06 0)
(2.87076e-05 3.85342e-06 0)
(2.6201e-05 5.48636e-06 0)
(2.39212e-05 7.01059e-06 0)
(2.17959e-05 8.4947e-06 0)
(1.9601e-05 9.92786e-06 0)
(1.76103e-05 1.10028e-05 0)
(1.56659e-05 1.1705e-05 0)
(1.32072e-05 1.22399e-05 0)
(1.04693e-05 1.26375e-05 0)
(7.78873e-06 1.30336e-05 0)
(4.76871e-06 1.37537e-05 0)
(1.3516e-06 1.48903e-05 0)
(-1.97436e-06 1.63576e-05 0)
(-5.192e-06 1.82046e-05 0)
(-8.43176e-06 2.04036e-05 0)
(-1.13789e-05 2.26369e-05 0)
(-1.39666e-05 2.45905e-05 0)
(-1.65476e-05 2.61513e-05 0)
(-1.91064e-05 2.72084e-05 0)
(-2.14067e-05 2.76006e-05 0)
(-2.36885e-05 2.73126e-05 0)
(-2.62669e-05 2.64081e-05 0)
(-2.89564e-05 2.48803e-05 0)
(-3.15736e-05 2.28557e-05 0)
(-3.42792e-05 2.06059e-05 0)
(-3.71442e-05 1.82117e-05 0)
(-4.01184e-05 1.56525e-05 0)
(-4.3221e-05 1.30806e-05 0)
(-4.63803e-05 1.06953e-05 0)
(-4.95117e-05 8.59004e-06 0)
(-5.26386e-05 6.77743e-06 0)
(-5.57896e-05 5.31722e-06 0)
(-5.89769e-05 4.34244e-06 0)
(-6.21129e-05 3.85949e-06 0)
(-6.50586e-05 3.81768e-06 0)
(-6.77592e-05 4.23295e-06 0)
(-7.01879e-05 5.00083e-06 0)
(-7.23899e-05 5.91539e-06 0)
(-7.43592e-05 6.82853e-06 0)
(-7.59617e-05 7.72228e-06 0)
(-7.71944e-05 8.60326e-06 0)
(-7.81064e-05 9.30383e-06 0)
(-7.86824e-05 9.70016e-06 0)
(-7.88633e-05 9.84128e-06 0)
(-7.84749e-05 9.71511e-06 0)
(-7.7419e-05 9.24024e-06 0)
(-7.56734e-05 8.30801e-06 0)
(-7.30764e-05 6.7624e-06 0)
(-6.9539e-05 4.47146e-06 0)
(-6.50949e-05 1.23916e-06 0)
(-5.9508e-05 -3.12754e-06 0)
(-5.26412e-05 -9.01593e-06 0)
(-4.45662e-05 -1.66228e-05 0)
(-3.51608e-05 -2.67536e-05 0)
(-2.44476e-05 -4.03057e-05 0)
(-1.24744e-05 -5.3394e-05 0)
(-3.24507e-06 -3.52535e-05 0)
(-0.000103169 0.000466399 0)
(-0.000249014 0.000458075 0)
(-0.000402341 3.81998e-05 0)
(-0.000486555 -0.000266379 0)
(-0.000517912 -0.000435539 0)
(-0.000526035 -0.000514317 0)
(-0.000515771 -0.000531909 0)
(-0.000493496 -0.000511049 0)
(-0.000464724 -0.000463693 0)
(-0.000430806 -0.000401721 0)
(-0.000394218 -0.000331187 0)
(-0.000354516 -0.000257562 0)
(-0.000315297 -0.000185466 0)
(-0.000275267 -0.000115477 0)
(-0.00023525 -5.31122e-05 0)
(-0.000197026 4.01766e-06 0)
(-0.000161533 5.33167e-05 0)
(-0.000126881 9.43384e-05 0)
(-9.39529e-05 0.000126806 0)
(-6.51041e-05 0.000151856 0)
(-3.82388e-05 0.000169051 0)
(-1.49935e-05 0.000179721 0)
(6.25335e-06 0.000184472 0)
(2.39236e-05 0.000183287 0)
(3.84243e-05 0.000178346 0)
(5.09248e-05 0.00016918 0)
(5.93208e-05 0.000157685 0)
(6.71288e-05 0.000143277 0)
(7.21072e-05 0.000129278 0)
(7.47788e-05 0.000113333 0)
(7.65378e-05 9.77238e-05 0)
(7.69204e-05 8.29145e-05 0)
(7.68882e-05 6.78113e-05 0)
(7.51426e-05 5.45981e-05 0)
(7.34137e-05 4.21247e-05 0)
(7.09897e-05 3.09469e-05 0)
(6.85774e-05 2.12186e-05 0)
(6.62782e-05 1.2519e-05 0)
(6.37493e-05 5.75653e-06 0)
(6.13063e-05 -5.95618e-07 0)
(5.95682e-05 -5.2829e-06 0)
(5.79309e-05 -8.95754e-06 0)
(5.59403e-05 -1.25553e-05 0)
(5.5223e-05 -1.49701e-05 0)
(5.44343e-05 -1.68995e-05 0)
(5.32773e-05 -1.83477e-05 0)
(5.28098e-05 -1.89495e-05 0)
(5.25798e-05 -1.92777e-05 0)
(5.23573e-05 -1.9427e-05 0)
(5.24674e-05 -1.91814e-05 0)
(5.27226e-05 -1.86971e-05 0)
(5.28383e-05 -1.80687e-05 0)
(5.30282e-05 -1.73334e-05 0)
(5.33913e-05 -1.65088e-05 0)
(5.36861e-05 -1.55954e-05 0)
(5.39581e-05 -1.46204e-05 0)
(5.42677e-05 -1.33465e-05 0)
(5.44507e-05 -1.16336e-05 0)
(5.44363e-05 -9.73022e-06 0)
(5.44662e-05 -7.80741e-06 0)
(5.46848e-05 -5.79942e-06 0)
(5.49059e-05 -3.89189e-06 0)
(5.50264e-05 -2.17673e-06 0)
(5.51144e-05 -3.43412e-07 0)
(5.51893e-05 1.61492e-06 0)
(5.50875e-05 3.6179e-06 0)
(5.48132e-05 5.62462e-06 0)
(5.46215e-05 7.6568e-06 0)
(5.46387e-05 9.68518e-06 0)
(5.46044e-05 1.14806e-05 0)
(5.43608e-05 1.30654e-05 0)
(5.42133e-05 1.45504e-05 0)
(5.40668e-05 1.59583e-05 0)
(5.36384e-05 1.72294e-05 0)
(5.31144e-05 1.82012e-05 0)
(5.26569e-05 1.91265e-05 0)
(5.22472e-05 2.00472e-05 0)
(5.16662e-05 2.07097e-05 0)
(5.08144e-05 2.12214e-05 0)
(5.00254e-05 2.1608e-05 0)
(4.92821e-05 2.19102e-05 0)
(4.82698e-05 2.2152e-05 0)
(4.71642e-05 2.21102e-05 0)
(4.61647e-05 2.19508e-05 0)
(4.52081e-05 2.1755e-05 0)
(4.42686e-05 2.12305e-05 0)
(4.3195e-05 2.03795e-05 0)
(4.20916e-05 1.91859e-05 0)
(4.11336e-05 1.76251e-05 0)
(3.9856e-05 1.58763e-05 0)
(3.8171e-05 1.38471e-05 0)
(3.6444e-05 1.15826e-05 0)
(3.4411e-05 9.48435e-06 0)
(3.20203e-05 7.61849e-06 0)
(2.96004e-05 5.93415e-06 0)
(2.70436e-05 4.58836e-06 0)
(2.44003e-05 3.58666e-06 0)
(2.17646e-05 2.94664e-06 0)
(1.89615e-05 2.78043e-06 0)
(1.6241e-05 2.92149e-06 0)
(1.3646e-05 3.2586e-06 0)
(1.07921e-05 3.99434e-06 0)
(8.04235e-06 5.09329e-06 0)
(5.74318e-06 6.31945e-06 0)
(3.38337e-06 7.69677e-06 0)
(9.33754e-07 9.20429e-06 0)
(-1.10866e-06 1.06128e-05 0)
(-2.91434e-06 1.18814e-05 0)
(-4.82493e-06 1.30208e-05 0)
(-6.76849e-06 1.38591e-05 0)
(-8.80835e-06 1.44428e-05 0)
(-1.11207e-05 1.50723e-05 0)
(-1.36102e-05 1.58265e-05 0)
(-1.61811e-05 1.66746e-05 0)
(-1.89205e-05 1.77969e-05 0)
(-2.17874e-05 1.93071e-05 0)
(-2.44872e-05 2.10762e-05 0)
(-2.68271e-05 2.30118e-05 0)
(-2.8973e-05 2.50229e-05 0)
(-3.10596e-05 2.68121e-05 0)
(-3.28671e-05 2.81537e-05 0)
(-3.43093e-05 2.90739e-05 0)
(-3.57356e-05 2.94927e-05 0)
(-3.73793e-05 2.92102e-05 0)
(-3.91008e-05 2.83002e-05 0)
(-4.0844e-05 2.69652e-05 0)
(-4.27991e-05 2.52273e-05 0)
(-4.50127e-05 2.31245e-05 0)
(-4.73354e-05 2.08237e-05 0)
(-4.98586e-05 1.84509e-05 0)
(-5.27566e-05 1.60653e-05 0)
(-5.58059e-05 1.37654e-05 0)
(-5.88215e-05 1.17338e-05 0)
(-6.19868e-05 1.00559e-05 0)
(-6.53332e-05 8.64637e-06 0)
(-6.86702e-05 7.54986e-06 0)
(-7.18949e-05 6.92982e-06 0)
(-7.49802e-05 6.78137e-06 0)
(-7.78414e-05 6.96662e-06 0)
(-8.03525e-05 7.3561e-06 0)
(-8.2575e-05 7.89321e-06 0)
(-8.45305e-05 8.51363e-06 0)
(-8.59652e-05 9.07184e-06 0)
(-8.68327e-05 9.4929e-06 0)
(-8.7324e-05 9.7252e-06 0)
(-8.74451e-05 9.65878e-06 0)
(-8.69851e-05 9.25816e-06 0)
(-8.57247e-05 8.4899e-06 0)
(-8.36975e-05 7.2694e-06 0)
(-8.10044e-05 5.52476e-06 0)
(-7.74366e-05 3.13506e-06 0)
(-7.28164e-05 -1.49328e-07 0)
(-6.71936e-05 -4.4341e-06 0)
(-6.06354e-05 -9.90686e-06 0)
(-5.28497e-05 -1.68903e-05 0)
(-4.39624e-05 -2.5766e-05 0)
(-3.42513e-05 -3.70228e-05 0)
(-2.35258e-05 -5.15424e-05 0)
(-1.18772e-05 -6.48025e-05 0)
(-3.19453e-06 -4.17352e-05 0)
(-9.8468e-05 0.000608794 0)
(-0.000236474 0.000643073 0)
(-0.000389834 0.000157484 0)
(-0.000480478 -0.000202805 0)
(-0.000524632 -0.00040648 0)
(-0.000544489 -0.000508214 0)
(-0.000547724 -0.000541097 0)
(-0.000539311 -0.000530188 0)
(-0.000521582 -0.000489605 0)
(-0.000498421 -0.000432523 0)
(-0.000470135 -0.000364922 0)
(-0.000439285 -0.00029414 0)
(-0.000403928 -0.00022283 0)
(-0.000367634 -0.000154772 0)
(-0.00033052 -9.10398e-05 0)
(-0.000292133 -3.38092e-05 0)
(-0.000254374 1.58699e-05 0)
(-0.000217901 5.85133e-05 0)
(-0.000182994 9.37088e-05 0)
(-0.000149046 0.00012085 0)
(-0.000118103 0.000140858 0)
(-8.85877e-05 0.000154102 0)
(-6.24277e-05 0.000161395 0)
(-3.88618e-05 0.000163347 0)
(-1.85682e-05 0.00016103 0)
(-1.54111e-06 0.000155082 0)
(1.37394e-05 0.000145341 0)
(2.54586e-05 0.00013526 0)
(3.49101e-05 0.000121436 0)
(4.1701e-05 0.000108708 0)
(4.73689e-05 9.46876e-05 0)
(5.10819e-05 8.10388e-05 0)
(5.26522e-05 6.75175e-05 0)
(5.4101e-05 5.50567e-05 0)
(5.36544e-05 4.3172e-05 0)
(5.26443e-05 3.24633e-05 0)
(5.1364e-05 2.34177e-05 0)
(4.93449e-05 1.46181e-05 0)
(4.73505e-05 7.78428e-06 0)
(4.52774e-05 1.3904e-06 0)
(4.33783e-05 -3.23168e-06 0)
(4.11839e-05 -7.73605e-06 0)
(3.91567e-05 -1.09046e-05 0)
(3.74779e-05 -1.32854e-05 0)
(3.58339e-05 -1.57378e-05 0)
(3.45441e-05 -1.7265e-05 0)
(3.32822e-05 -1.80884e-05 0)
(3.20089e-05 -1.87345e-05 0)
(3.11994e-05 -1.89809e-05 0)
(3.0588e-05 -1.88294e-05 0)
(2.99525e-05 -1.85988e-05 0)
(2.94497e-05 -1.82198e-05 0)
(2.90529e-05 -1.74437e-05 0)
(2.86041e-05 -1.64465e-05 0)
(2.80694e-05 -1.54318e-05 0)
(2.76892e-05 -1.43015e-05 0)
(2.74962e-05 -1.2974e-05 0)
(2.72856e-05 -1.15295e-05 0)
(2.69831e-05 -9.94073e-06 0)
(2.67397e-05 -8.08083e-06 0)
(2.65539e-05 -6.02003e-06 0)
(2.62721e-05 -3.95754e-06 0)
(2.61312e-05 -2.07532e-06 0)
(2.61307e-05 -1.63449e-07 0)
(2.60141e-05 1.815e-06 0)
(2.59151e-05 3.66743e-06 0)
(2.59056e-05 5.54693e-06 0)
(2.5833e-05 7.59665e-06 0)
(2.57594e-05 9.65832e-06 0)
(2.58077e-05 1.14435e-05 0)
(2.58914e-05 1.30762e-05 0)
(2.59746e-05 1.46866e-05 0)
(2.60345e-05 1.60465e-05 0)