/*--------------------------------*- C++ -*----------------------------------*\
  =========                 |
  \\      /  F ield         | OpenFOAM: The Open Source CFD Toolbox
   \\    /   O peration     | Website:  https://openfoam.org
    \\  /    A nd           | Version:  7
     \\/     M anipulation  |
\*---------------------------------------------------------------------------*/
FoamFile
{
    version     2.0;
    format      ascii;
    class       volScalarField;
    location    "0.3";
    object      p;
}
// * * * * * * * * * * * * * * * * * * * * * * * * * * * * * * * * * * * * * //

dimensions      [0 2 -2 0 0 0 0];

internalField   nonuniform List<scalar> 
51200
(
-4.61481e-06
-8.27961e-06
-7.71043e-06
-4.38316e-06
6.22259e-07
6.98317e-06
1.45182e-05
2.29558e-05
3.20438e-05
4.15001e-05
5.11564e-05
6.0828e-05
7.03832e-05
7.97055e-05
8.865e-05
9.71126e-05
0.000105013
0.000112278
0.000118862
0.000124724
0.000129807
0.000134068
0.000137462
0.000139946
0.000141495
0.000142098
0.000141742
0.000140414
0.00013812
0.000134865
0.000130645
0.000125457
0.00011931
0.000112215
0.000104179
9.52012e-05
8.52876e-05
7.44655e-05
6.27482e-05
5.01398e-05
3.66509e-05
2.23065e-05
7.13017e-06
-8.86249e-06
-2.56621e-05
-4.32538e-05
-6.16096e-05
-8.07041e-05
-0.000100517
-0.000121035
-0.00014224
-0.000164107
-0.000186614
-0.000209739
-0.00023346
-0.000257755
-0.000282598
-0.000307969
-0.000333842
-0.000360194
-0.000387002
-0.000414241
-0.000441891
-0.000469935
-0.000498355
-0.000527127
-0.000556222
-0.000585617
-0.000615296
-0.000645245
-0.000675442
-0.00070586
-0.000736467
-0.000767241
-0.000798165
-0.000829226
-0.000860401
-0.000891662
-0.000922981
-0.000954329
-0.000985684
-0.00101703
-0.00104836
-0.00107963
-0.00111084
-0.00114194
-0.00117291
-0.00120374
-0.00123441
-0.00126489
-0.00129516
-0.0013252
-0.00135498
-0.00138447
-0.00141364
-0.00144249
-0.00147099
-0.00149912
-0.00152685
-0.00155415
-0.00158101
-0.00160741
-0.00163333
-0.00165874
-0.00168362
-0.00170794
-0.00173169
-0.00175484
-0.00177737
-0.00179926
-0.00182049
-0.00184104
-0.00186088
-0.00187999
-0.00189835
-0.00191594
-0.00193273
-0.00194873
-0.0019639
-0.00197823
-0.0019917
-0.00200429
-0.002016
-0.0020268
-0.00203668
-0.00204564
-0.00205366
-0.00206073
-0.00206684
-0.002072
-0.00207619
-0.00207943
-0.0020817
-0.00208301
-0.00208336
-0.00208276
-0.00208124
-0.0020788
-0.00207547
-0.00207128
-0.00206626
-0.00206046
-0.00205393
-0.00204671
-0.00203888
-0.0020305
-0.00202166
-0.00201245
-0.00200299
-0.00199341
-0.00198388
-0.00197455
-0.00196562
-0.00195731
-0.00194989
-0.00194363
-0.00193883
-0.00193576
-0.00193468
-0.00193529
-7.07435e-06
-8.14126e-06
-6.8746e-06
-3.97347e-06
3.06506e-07
5.85272e-06
1.24696e-05
1.98422e-05
2.77412e-05
3.60366e-05
4.45629e-05
5.31605e-05
6.16903e-05
7e-05
7.79732e-05
8.55281e-05
9.25814e-05
9.90638e-05
0.000104928
0.00011012
0.000114589
0.000118288
0.000121166
0.000123187
0.000124332
0.00012458
0.000123913
0.000122327
0.000119826
0.000116403
0.000112044
0.000106757
0.000100557
9.34473e-05
8.54218e-05
7.64847e-05
6.66534e-05
5.59461e-05
4.43666e-05
3.19174e-05
1.86162e-05
4.49027e-06
-1.04411e-05
-2.61742e-05
-4.26997e-05
-5.99934e-05
-7.80262e-05
-9.67798e-05
-0.000116239
-0.000136388
-0.000157207
-0.000178676
-0.000200772
-0.000223476
-0.000246763
-0.000270612
-0.000294998
-0.000319902
-0.0003453
-0.000371168
-0.000397483
-0.000424222
-0.000451369
-0.000478906
-0.000506813
-0.000535063
-0.000563629
-0.000592492
-0.000621639
-0.000651055
-0.000680715
-0.000710587
-0.000740643
-0.000770865
-0.000801241
-0.000831754
-0.00086238
-0.000893088
-0.000923849
-0.000954636
-0.000985434
-0.00101623
-0.001047
-0.00107772
-0.00110837
-0.00113892
-0.00116934
-0.00119962
-0.00122974
-0.00125968
-0.00128941
-0.00131891
-0.00134815
-0.0013771
-0.00140575
-0.00143407
-0.00146206
-0.00148967
-0.00151688
-0.00154369
-0.00157006
-0.00159597
-0.00162141
-0.00164635
-0.00167077
-0.00169464
-0.00171795
-0.00174067
-0.00176278
-0.00178427
-0.00180512
-0.00182529
-0.00184478
-0.00186354
-0.00188158
-0.00189887
-0.00191538
-0.00193111
-0.00194605
-0.00196016
-0.00197344
-0.00198587
-0.00199743
-0.00200812
-0.00201793
-0.00202684
-0.00203485
-0.00204193
-0.00204811
-0.00205336
-0.00205769
-0.00206109
-0.00206358
-0.00206515
-0.00206581
-0.00206557
-0.00206445
-0.00206247
-0.00205964
-0.00205602
-0.00205162
-0.0020465
-0.0020407
-0.00203427
-0.00202728
-0.0020198
-0.00201191
-0.0020037
-0.0019953
-0.00198681
-0.00197839
-0.00197019
-0.00196239
-0.00195516
-0.00194872
-0.0019433
-0.00193911
-0.00193633
-0.00193524
-0.00193586
-8.71991e-06
-9.06725e-06
-7.76918e-06
-5.11883e-06
-1.25554e-06
3.77943e-06
9.76131e-06
1.63933e-05
2.35126e-05
3.0982e-05
3.86813e-05
4.64787e-05
5.42109e-05
6.17357e-05
6.89618e-05
7.58005e-05
8.21803e-05
8.80395e-05
9.3323e-05
9.79794e-05
0.000101955
0.000105195
0.000107654
0.000109299
0.000110104
0.000110045
0.000109114
0.000107311
0.000104628
0.00010105
9.6571e-05
9.12039e-05
8.49557e-05
7.782e-05
6.97945e-05
6.08904e-05
5.11259e-05
4.05048e-05
2.9029e-05
1.67052e-05
3.55967e-06
-1.03876e-05
-2.5127e-05
-4.06544e-05
-5.69547e-05
-7.39996e-05
-9.17659e-05
-0.000110241
-0.00012941
-0.000149254
-0.000169755
-0.000190892
-0.000212648
-0.000235
-0.000257926
-0.000281403
-0.000305409
-0.000329925
-0.000354927
-0.00038039
-0.000406293
-0.000432614
-0.000459341
-0.000486453
-0.000513929
-0.000541739
-0.00056986
-0.000598277
-0.00062698
-0.000655949
-0.000685154
-0.000714566
-0.000744159
-0.000773919
-0.000803834
-0.000833887
-0.00086405
-0.000894291
-0.00092458
-0.000954896
-0.000985225
-0.00101555
-0.00104586
-0.00107612
-0.0011063
-0.00113637
-0.00116633
-0.00119614
-0.0012258
-0.00125529
-0.00128457
-0.00131361
-0.0013424
-0.0013709
-0.0013991
-0.00142699
-0.00145454
-0.00148172
-0.00150851
-0.00153489
-0.00156085
-0.00158635
-0.00161139
-0.00163594
-0.00165998
-0.00168347
-0.00170642
-0.00172878
-0.00175055
-0.00177171
-0.00179224
-0.0018121
-0.00183129
-0.00184978
-0.00186755
-0.00188458
-0.00190087
-0.00191639
-0.00193113
-0.00194507
-0.00195819
-0.00197049
-0.00198194
-0.00199256
-0.0020023
-0.00201118
-0.00201918
-0.00202629
-0.00203252
-0.00203785
-0.0020423
-0.00204587
-0.00204854
-0.00205033
-0.00205125
-0.00205131
-0.00205052
-0.00204891
-0.00204651
-0.00204334
-0.00203944
-0.00203487
-0.00202965
-0.00202386
-0.00201753
-0.00201076
-0.00200361
-0.00199617
-0.00198857
-0.0019809
-0.0019733
-0.00196591
-0.00195888
-0.00195239
-0.00194659
-0.00194169
-0.00193785
-0.00193524
-0.00193415
-0.00193474
-1.15354e-05
-1.16946e-05
-1.03394e-05
-7.6534e-06
-3.87744e-06
8.73145e-07
6.39893e-06
1.25428e-05
1.91301e-05
2.60312e-05
3.31411e-05
4.03196e-05
4.74294e-05
5.43473e-05
6.09824e-05
6.72488e-05
7.30785e-05
7.84242e-05
8.32286e-05
8.74361e-05
9.09878e-05
9.38329e-05
9.59326e-05
9.72541e-05
9.77647e-05
9.74436e-05
9.62892e-05
9.4295e-05
9.14425e-05
8.77204e-05
8.31343e-05
7.76922e-05
7.13915e-05
6.42229e-05
5.61924e-05
4.73146e-05
3.7601e-05
2.70432e-05
1.56476e-05
3.43173e-06
-9.58157e-06
-2.3382e-05
-3.79635e-05
-5.33165e-05
-6.94218e-05
-8.62531e-05
-0.000103793
-0.000122032
-0.000140952
-0.000160535
-0.000180761
-0.000201615
-0.000223075
-0.00024512
-0.00026773
-0.000290883
-0.000314558
-0.000338735
-0.000363391
-0.0003885
-0.000414042
-0.00044
-0.00046636
-0.000493102
-0.000520197
-0.000547619
-0.00057535
-0.000603379
-0.000631692
-0.000660265
-0.000689069
-0.000718073
-0.000747259
-0.000776614
-0.000806127
-0.000835774
-0.000865526
-0.000895352
-0.000925226
-0.000955127
-0.000985043
-0.00101496
-0.00104486
-0.0010747
-0.00110447
-0.00113413
-0.00116368
-0.00119309
-0.00122234
-0.00125143
-0.0012803
-0.00130894
-0.00133733
-0.00136544
-0.00139325
-0.00142076
-0.00144792
-0.00147472
-0.00150114
-0.00152715
-0.00155275
-0.0015779
-0.00160259
-0.0016268
-0.0016505
-0.00167367
-0.00169629
-0.00171835
-0.00173982
-0.00176069
-0.00178094
-0.00180054
-0.00181948
-0.00183773
-0.00185527
-0.00187209
-0.00188819
-0.00190353
-0.0019181
-0.00193189
-0.00194489
-0.00195708
-0.00196844
-0.00197899
-0.00198869
-0.00199755
-0.00200555
-0.00201269
-0.00201897
-0.00202439
-0.00202895
-0.00203264
-0.00203548
-0.00203747
-0.00203862
-0.00203893
-0.00203844
-0.00203715
-0.0020351
-0.00203232
-0.00202885
-0.00202473
-0.00202
-0.00201472
-0.00200894
-0.00200273
-0.00199616
-0.00198933
-0.00198234
-0.00197528
-0.00196829
-0.00196147
-0.00195498
-0.00194896
-0.00194355
-0.00193892
-0.00193523
-0.00193262
-0.00193136
-0.00193165
-1.61417e-05
-1.58103e-05
-1.41532e-05
-1.12637e-05
-7.41691e-06
-2.81842e-06
2.4271e-06
8.20626e-06
1.43885e-05
2.08642e-05
2.75006e-05
3.4165e-05
4.07461e-05
4.71399e-05
5.3258e-05
5.90195e-05
6.43705e-05
6.92601e-05
7.36348e-05
7.7434e-05
8.05979e-05
8.30805e-05
8.48455e-05
8.58567e-05
8.60845e-05
8.55182e-05
8.41534e-05
8.19711e-05
7.89525e-05
7.50968e-05
7.04116e-05
6.48934e-05
5.85339e-05
5.13294e-05
4.32932e-05
3.44371e-05
2.47593e-05
1.42536e-05
2.93157e-06
-9.18464e-06
-2.20776e-05
-3.5745e-05
-5.0182e-05
-6.53729e-05
-8.12953e-05
-9.79293e-05
-0.000115261
-0.000133277
-0.000151962
-0.000171297
-0.000191266
-0.000211851
-0.000233032
-0.000254788
-0.0002771
-0.000299947
-0.00032331
-0.000347165
-0.000371489
-0.00039626
-0.000421458
-0.000447071
-0.000473083
-0.000499468
-0.000526199
-0.000553251
-0.000580611
-0.00060827
-0.000636211
-0.000664405
-0.000692822
-0.000721436
-0.000750233
-0.000779202
-0.000808327
-0.000837585
-0.000866944
-0.000896373
-0.000925847
-0.000955351
-0.000984873
-0.0010144
-0.0010439
-0.00107335
-0.00110272
-0.00113198
-0.00116113
-0.00119016
-0.00121903
-0.00124772
-0.00127621
-0.00130447
-0.00133247
-0.00136021
-0.00138765
-0.00141478
-0.00144158
-0.00146802
-0.00149408
-0.00151975
-0.00154499
-0.00156981
-0.00159417
-0.00161805
-0.00164143
-0.0016643
-0.00168662
-0.00170838
-0.00172957
-0.00175017
-0.00177016
-0.00178951
-0.00180821
-0.00182623
-0.00184357
-0.00186019
-0.0018761
-0.00189128
-0.0019057
-0.00191936
-0.00193224
-0.00194433
-0.00195562
-0.00196611
-0.00197577
-0.00198461
-0.00199262
-0.00199979
-0.00200613
-0.00201163
-0.00201629
-0.00202013
-0.00202313
-0.0020253
-0.00202666
-0.00202722
-0.00202699
-0.00202601
-0.00202428
-0.00202186
-0.00201878
-0.00201507
-0.00201078
-0.00200596
-0.00200066
-0.00199495
-0.00198889
-0.00198258
-0.0019761
-0.00196955
-0.00196304
-0.00195668
-0.00195058
-0.00194489
-0.00193973
-0.00193523
-0.00193151
-0.00192875
-0.00192714
-0.00192682
-2.23095e-05
-2.11101e-05
-1.89191e-05
-1.57577e-05
-1.18083e-05
-7.21404e-06
-2.08932e-06
3.4727e-06
9.38893e-06
1.55473e-05
2.18104e-05
2.8064e-05
3.42074e-05
4.01522e-05
4.58262e-05
5.11569e-05
5.60931e-05
6.05845e-05
6.45747e-05
6.80008e-05
7.08125e-05
7.2968e-05
7.44241e-05
7.51455e-05
7.51145e-05
7.43235e-05
7.27567e-05
7.03908e-05
6.72144e-05
6.32345e-05
5.84512e-05
5.28518e-05
4.64292e-05
3.91917e-05
3.11498e-05
2.23071e-05
1.26536e-05
2.19226e-06
-9.05976e-06
-2.10839e-05
-3.3872e-05
-4.74235e-05
-6.17283e-05
-7.67672e-05
-9.25201e-05
-0.000108972
-0.000126111
-0.000143922
-0.000162388
-0.000181494
-0.000201222
-0.000221556
-0.000242476
-0.000263961
-0.000285992
-0.000308551
-0.000331618
-0.00035517
-0.00037918
-0.000403631
-0.000428507
-0.000453796
-0.000479477
-0.000505523
-0.000531906
-0.000558607
-0.000585619
-0.000612928
-0.000640514
-0.000668346
-0.000696393
-0.000724638
-0.000753067
-0.00078167
-0.000810427
-0.000839313
-0.000868295
-0.000897343
-0.000926437
-0.000955564
-0.000984713
-0.00101386
-0.00104299
-0.00107206
-0.00110105
-0.00112994
-0.00115872
-0.00118737
-0.00121587
-0.0012442
-0.00127232
-0.00130021
-0.00132785
-0.00135523
-0.00138232
-0.00140911
-0.00143556
-0.00146165
-0.00148738
-0.00151271
-0.00153763
-0.00156212
-0.00158617
-0.00160975
-0.00163283
-0.0016554
-0.00167744
-0.00169893
-0.00171986
-0.00174021
-0.00175995
-0.00177907
-0.00179754
-0.00181536
-0.00183249
-0.00184894
-0.00186468
-0.0018797
-0.00189399
-0.00190752
-0.0019203
-0.0019323
-0.00194353
-0.00195396
-0.0019636
-0.00197243
-0.00198045
-0.00198765
-0.00199405
-0.00199963
-0.0020044
-0.00200836
-0.00201151
-0.00201386
-0.00201542
-0.0020162
-0.00201623
-0.00201552
-0.0020141
-0.00201201
-0.00200927
-0.00200594
-0.00200204
-0.00199762
-0.00199274
-0.00198745
-0.00198183
-0.00197595
-0.00196989
-0.00196375
-0.00195762
-0.00195159
-0.00194577
-0.00194027
-0.00193522
-0.00193072
-0.00192687
-0.00192382
-0.00192169
-0.00192053
-2.9645e-05
-2.73872e-05
-2.45402e-05
-2.10455e-05
-1.68827e-05
-1.21844e-05
-7.04698e-06
-1.55209e-06
4.21228e-06
1.01401e-05
1.6121e-05
2.20534e-05
2.78497e-05
3.34336e-05
3.87396e-05
4.37097e-05
4.82968e-05
5.24452e-05
5.60936e-05
5.91886e-05
6.16878e-05
6.35453e-05
6.47166e-05
6.51766e-05
6.49154e-05
6.39178e-05
6.21575e-05
5.96173e-05
5.62975e-05
5.22032e-05
4.73203e-05
4.16372e-05
3.51556e-05
2.78882e-05
1.98368e-05
1.09962e-05
1.35753e-06
-9.06529e-06
-2.02537e-05
-3.21982e-05
-4.48964e-05
-5.83439e-05
-7.25272e-05
-8.7427e-05
-0.000103026
-0.000119313
-0.000136275
-0.000153897
-0.000172163
-0.000191059
-0.000210566
-0.000230668
-0.000251344
-0.000272576
-0.000294347
-0.000316638
-0.00033943
-0.000362696
-0.000386414
-0.000410567
-0.000435143
-0.000460128
-0.000485498
-0.000511223
-0.00053728
-0.000563655
-0.000590341
-0.000617322
-0.000644572
-0.00067206
-0.000699761
-0.000727658
-0.000755743
-0.000784002
-0.000812412
-0.000840945
-0.00086957
-0.000898258
-0.000926995
-0.000955769
-0.000984566
-0.00101336
-0.00104213
-0.00107084
-0.00109947
-0.00112801
-0.00115644
-0.00118474
-0.0012129
-0.00124088
-0.00126865
-0.0012962
-0.0013235
-0.00135054
-0.0013773
-0.00140376
-0.00142988
-0.00145566
-0.00148106
-0.00150608
-0.0015307
-0.0015549
-0.00157865
-0.00160194
-0.00162474
-0.00164704
-0.00166882
-0.00169006
-0.00171074
-0.00173085
-0.00175037
-0.00176927
-0.00178754
-0.00180516
-0.00182212
-0.0018384
-0.00185399
-0.00186887
-0.00188303
-0.00189646
-0.00190914
-0.00192108
-0.00193224
-0.00194264
-0.00195225
-0.00196107
-0.0019691
-0.00197635
-0.0019828
-0.00198846
-0.00199333
-0.0019974
-0.0020007
-0.00200321
-0.00200496
-0.00200595
-0.0020062
-0.00200575
-0.0020046
-0.0020028
-0.00200038
-0.00199737
-0.00199381
-0.00198974
-0.00198522
-0.00198029
-0.00197503
-0.0019695
-0.00196378
-0.00195795
-0.00195209
-0.00194628
-0.00194063
-0.00193522
-0.00193015
-0.00192553
-0.00192144
-0.00191799
-0.00191521
-0.00191306
-3.78427e-05
-3.44933e-05
-3.09317e-05
-2.69657e-05
-2.24916e-05
-1.75901e-05
-1.23291e-05
-6.8001e-06
-1.10115e-06
4.68446e-06
1.04669e-05
1.61583e-05
2.16863e-05
2.69829e-05
3.19945e-05
3.6674e-05
4.09695e-05
4.48202e-05
4.81728e-05
5.09824e-05
5.32026e-05
5.47866e-05
5.57006e-05
5.59301e-05
5.54609e-05
5.42665e-05
5.23229e-05
4.9626e-05
4.61782e-05
4.19714e-05
3.69891e-05
3.12267e-05
2.46923e-05
1.7394e-05
9.32429e-06
4.7476e-07
-9.15277e-06
-1.95392e-05
-3.06721e-05
-4.25504e-05
-5.51726e-05
-6.85275e-05
-8.25998e-05
-9.73735e-05
-0.000112835
-0.000128972
-0.000145772
-0.000163221
-0.000181304
-0.000200006
-0.000219311
-0.000239197
-0.000259649
-0.000280648
-0.000302179
-0.000324223
-0.000346757
-0.000369757
-0.000393201
-0.000417078
-0.000441377
-0.000466078
-0.000491154
-0.000516577
-0.000542329
-0.000568401
-0.000594784
-0.000621456
-0.000648389
-0.000675553
-0.000702928
-0.000730501
-0.000758263
-0.0007862
-0.000814284
-0.000842483
-0.000870769
-0.000899119
-0.000927521
-0.000955965
-0.00098443
-0.00101289
-0.00104132
-0.00106969
-0.00109799
-0.00112619
-0.0011543
-0.00118228
-0.0012101
-0.00123775
-0.0012652
-0.00129243
-0.00131941
-0.00134614
-0.00137259
-0.00139873
-0.00142455
-0.00145002
-0.00147513
-0.00149986
-0.0015242
-0.00154812
-0.0015716
-0.00159462
-0.00161716
-0.00163921
-0.00166074
-0.00168175
-0.0017022
-0.0017221
-0.00174141
-0.00176011
-0.00177819
-0.00179564
-0.00181243
-0.00182856
-0.00184401
-0.00185877
-0.00187282
-0.00188615
-0.00189875
-0.00191062
-0.00192174
-0.0019321
-0.00194169
-0.00195051
-0.00195856
-0.00196584
-0.00197235
-0.00197809
-0.00198305
-0.00198724
-0.00199067
-0.00199333
-0.00199525
-0.00199643
-0.00199689
-0.00199666
-0.00199577
-0.00199423
-0.00199208
-0.00198935
-0.00198608
-0.00198231
-0.00197809
-0.00197347
-0.00196849
-0.00196323
-0.00195777
-0.00195216
-0.00194649
-0.00194082
-0.00193524
-0.00192982
-0.00192464
-0.00191979
-0.00191536
-0.00191143
-0.00190791
-0.00190468
-4.66633e-05
-4.22568e-05
-3.79027e-05
-3.33823e-05
-2.8499e-05
-2.32911e-05
-1.7831e-05
-1.22059e-05
-6.49773e-06
-7.77794e-07
4.88062e-06
1.04079e-05
1.57366e-05
2.08172e-05
2.56056e-05
3.00519e-05
3.41017e-05
3.76995e-05
4.08007e-05
4.33614e-05
4.53306e-05
4.66689e-05
4.73578e-05
4.7383e-05
4.672e-05
4.53405e-05
4.32323e-05
4.0396e-05
3.68285e-05
3.25104e-05
2.74304e-05
2.15953e-05
1.50133e-05
7.67955e-06
-4.17107e-07
-9.27912e-06
-1.88965e-05
-2.92523e-05
-4.03412e-05
-5.21651e-05
-6.47209e-05
-7.79928e-05
-9.19656e-05
-0.000106627
-0.000121965
-0.000137967
-0.000154621
-0.000171913
-0.000189829
-0.000208354
-0.000227471
-0.00024716
-0.000267406
-0.000288193
-0.000309504
-0.000331318
-0.000353611
-0.000376361
-0.000399553
-0.000423177
-0.000447218
-0.000471653
-0.000496451
-0.000521592
-0.000547061
-0.000572854
-0.000598954
-0.000625335
-0.000651968
-0.000678828
-0.0007059
-0.000733172
-0.000760634
-0.000788268
-0.000816043
-0.000843927
-0.000871895
-0.000899929
-0.000928019
-0.000956152
-0.000984305
-0.00101245
-0.00104056
-0.00106861
-0.0010966
-0.00112449
-0.00115229
-0.00117996
-0.00120748
-0.00123482
-0.00126196
-0.00128889
-0.00131558
-0.00134201
-0.00136816
-0.00139402
-0.00141955
-0.00144474
-0.00146958
-0.00149404
-0.00151811
-0.00154177
-0.001565
-0.00158777
-0.00161007
-0.00163188
-0.00165319
-0.00167398
-0.00169423
-0.00171393
-0.00173305
-0.00175157
-0.00176948
-0.00178676
-0.00180341
-0.0018194
-0.00183473
-0.00184938
-0.00186333
-0.00187657
-0.0018891
-0.00190091
-0.00191199
-0.00192232
-0.0019319
-0.00194073
-0.0019488
-0.00195612
-0.00196268
-0.00196849
-0.00197355
-0.00197784
-0.00198139
-0.0019842
-0.00198627
-0.00198762
-0.00198827
-0.00198825
-0.00198757
-0.00198626
-0.00198435
-0.00198187
-0.00197885
-0.00197533
-0.00197135
-0.00196697
-0.00196223
-0.00195719
-0.00195191
-0.00194645
-0.00194088
-0.00193526
-0.00192967
-0.00192416
-0.0019188
-0.00191364
-0.0019088
-0.00190432
-0.00190001
-0.00189565
-5.59415e-05
-5.04216e-05
-4.5258e-05
-4.01345e-05
-3.4758e-05
-2.91795e-05
-2.34741e-05
-1.76979e-05
-1.19183e-05
-6.19664e-06
-5.98715e-07
4.82823e-06
1.00291e-05
1.49626e-05
1.95846e-05
2.3845e-05
2.76912e-05
3.10804e-05
3.39701e-05
3.631e-05
3.80547e-05
3.91818e-05
3.96785e-05
3.9518e-05
3.86729e-05
3.71256e-05
3.48741e-05
3.19129e-05
2.8227e-05
2.38002e-05
1.86327e-05
1.27332e-05
6.1013e-06
-1.27503e-06
-9.40409e-06
-1.8279e-05
-2.78871e-05
-3.82196e-05
-4.92768e-05
-6.10576e-05
-7.35545e-05
-8.67527e-05
-0.000100638
-0.0001152
-0.000130428
-0.000146309
-0.000162831
-0.000179982
-0.000197748
-0.000216112
-0.000235057
-0.000254567
-0.000274625
-0.000295218
-0.000316326
-0.000337927
-0.000359996
-0.000382516
-0.000405479
-0.000428871
-0.000452672
-0.000476855
-0.000501394
-0.000526273
-0.000551484
-0.000577017
-0.000602853
-0.000628961
-0.000655313
-0.00068189
-0.000708679
-0.000735673
-0.000762857
-0.000790208
-0.000817692
-0.000845279
-0.000872949
-0.000900689
-0.000928489
-0.000956332
-0.000984191
-0.00101204
-0.00103985
-0.00106761
-0.0010953
-0.00112291
-0.00115042
-0.0011778
-0.00120503
-0.00123208
-0.00125894
-0.00128558
-0.001312
-0.00133815
-0.00136404
-0.00138962
-0.00141489
-0.00143982
-0.0014644
-0.00148861
-0.00151244
-0.00153586
-0.00155885
-0.00158139
-0.00160347
-0.00162507
-0.00164617
-0.00166676
-0.00168682
-0.00170633
-0.00172528
-0.00174363
-0.00176139
-0.00177853
-0.00179504
-0.00181091
-0.00182613
-0.00184067
-0.00185454
-0.00186771
-0.00188018
-0.00189194
-0.00190298
-0.00191329
-0.00192287
-0.0019317
-0.0019398
-0.00194716
-0.00195378
-0.00195965
-0.00196479
-0.00196919
-0.00197285
-0.00197579
-0.001978
-0.00197951
-0.00198033
-0.00198049
-0.00198
-0.00197889
-0.00197719
-0.00197492
-0.00197211
-0.0019688
-0.00196502
-0.00196082
-0.00195625
-0.00195137
-0.00194621
-0.00194085
-0.00193532
-0.00192968
-0.00192401
-0.00191834
-0.00191273
-0.00190722
-0.00190189
-0.00189682
-0.00189168
-0.00188618
-6.54635e-05
-5.88138e-05
-5.28147e-05
-4.70551e-05
-4.11622e-05
-3.51776e-05
-2.91787e-05
-2.32028e-05
-1.73016e-05
-1.15258e-05
-5.92172e-06
-5.34442e-07
4.60031e-06
9.44298e-06
1.39456e-05
1.80603e-05
2.17476e-05
2.49675e-05
2.76726e-05
2.98167e-05
3.13726e-05
3.23244e-05
3.26506e-05
3.23186e-05
3.13081e-05
2.96144e-05
2.72357e-05
2.41554e-05
2.03546e-05
1.5829e-05
1.05849e-05
4.62512e-06
-2.06163e-06
-9.48575e-06
-1.76479e-05
-2.6534e-05
-3.61367e-05
-4.64561e-05
-5.74924e-05
-6.92388e-05
-8.16854e-05
-9.4819e-05
-0.000108629
-0.000123104
-0.000138234
-0.000154008
-0.000170414
-0.000187439
-0.000205071
-0.00022329
-0.000242079
-0.000261425
-0.000281314
-0.00030173
-0.000322653
-0.000344057
-0.00036592
-0.000388232
-0.000410985
-0.000434163
-0.000457741
-0.000481689
-0.000505988
-0.000530628
-0.000555602
-0.000580895
-0.000606483
-0.000632336
-0.000658428
-0.000684743
-0.000711273
-0.000738009
-0.000764934
-0.000792018
-0.000819229
-0.00084654
-0.000873934
-0.000901402
-0.000928933
-0.000956504
-0.000984088
-0.00101166
-0.00103919
-0.00106667
-0.00109409
-0.00112143
-0.00114867
-0.00117579
-0.00120275
-0.00122953
-0.00125613
-0.00128251
-0.00130867
-0.00133457
-0.0013602
-0.00138553
-0.00141055
-0.00143524
-0.00145959
-0.00148357
-0.00150717
-0.00153037
-0.00155314
-0.00157547
-0.00159735
-0.00161875
-0.00163966
-0.00166007
-0.00167996
-0.00169931
-0.00171809
-0.0017363
-0.00175391
-0.00177092
-0.00178732
-0.00180308
-0.0018182
-0.00183265
-0.00184644
-0.00185955
-0.00187197
-0.00188369
-0.0018947
-0.00190499
-0.00191457
-0.00192342
-0.00193154
-0.00193894
-0.00194561
-0.00195156
-0.00195678
-0.00196127
-0.00196504
-0.00196809
-0.00197043
-0.00197208
-0.00197306
-0.00197337
-0.00197305
-0.00197212
-0.00197059
-0.0019685
-0.00196586
-0.00196272
-0.0019591
-0.00195504
-0.0019506
-0.00194581
-0.00194073
-0.0019354
-0.00192985
-0.00192415
-0.00191833
-0.00191244
-0.00190653
-0.00190062
-0.00189478
-0.00188907
-0.0018831
-0.00187646
-7.50575e-05
-6.72783e-05
-6.04243e-05
-5.40322e-05
-4.76121e-05
-4.11972e-05
-3.48687e-05
-2.86513e-05
-2.25788e-05
-1.66963e-05
-1.10375e-05
-5.63094e-06
-5.09063e-07
4.28424e-06
8.70409e-06
1.27143e-05
1.6282e-05
1.93612e-05
2.19064e-05
2.38874e-05
2.52887e-05
2.60906e-05
2.62589e-05
2.5771e-05
2.46196e-05
2.28013e-05
2.03045e-05
1.71077e-05
1.32001e-05
8.58857e-06
3.27569e-06
-2.74695e-06
-9.49404e-06
-1.69667e-05
-2.51587e-05
-3.40579e-05
-4.36628e-05
-5.39774e-05
-6.5e-05
-7.67191e-05
-8.91237e-05
-0.000102204
-0.000115949
-0.000130349
-0.000145395
-0.000161076
-0.000177381
-0.000194296
-0.000211807
-0.000229895
-0.000248545
-0.000267746
-0.000287484
-0.00030774
-0.000328492
-0.000349714
-0.000371391
-0.000393516
-0.000416079
-0.00043906
-0.000462428
-0.000486159
-0.000510239
-0.000534663
-0.00055942
-0.000584492
-0.000609849
-0.000635464
-0.000661315
-0.000687391
-0.000713683
-0.000740182
-0.000766865
-0.0007937
-0.000820656
-0.000847711
-0.000874853
-0.000902071
-0.000929351
-0.000956668
-0.000983995
-0.00101131
-0.00103858
-0.00106581
-0.00109298
-0.00112007
-0.00114706
-0.00117392
-0.00120064
-0.00122718
-0.00125353
-0.00127967
-0.00130559
-0.00133125
-0.00135665
-0.00138175
-0.00140654
-0.00143101
-0.00145514
-0.00147891
-0.0015023
-0.0015253
-0.00154787
-0.00157001
-0.0015917
-0.00161292
-0.00163366
-0.00165391
-0.00167364
-0.00169284
-0.00171148
-0.00172955
-0.00174704
-0.00176393
-0.00178022
-0.00179589
-0.00181092
-0.0018253
-0.00183902
-0.00185208
-0.00186445
-0.00187614
-0.00188713
-0.00189742
-0.001907
-0.00191586
-0.00192401
-0.00193145
-0.00193818
-0.00194419
-0.00194949
-0.00195407
-0.00195794
-0.00196109
-0.00196355
-0.00196533
-0.00196644
-0.0019669
-0.00196673
-0.00196594
-0.00196456
-0.00196261
-0.00196011
-0.0019571
-0.00195361
-0.00194966
-0.00194529
-0.00194056
-0.0019355
-0.00193015
-0.00192454
-0.00191872
-0.00191271
-0.00190657
-0.0019003
-0.00189396
-0.00188759
-0.00188124
-0.00187442
-0.00186666
-8.45717e-05
-7.56809e-05
-6.79931e-05
-6.09692e-05
-5.40101e-05
-4.71508e-05
-4.04647e-05
-3.39697e-05
-2.76887e-05
-2.16522e-05
-1.58868e-05
-1.04122e-05
-5.26868e-06
-4.92577e-07
3.8832e-06
7.82664e-06
1.12999e-05
1.42598e-05
1.66748e-05
1.85301e-05
1.98048e-05
2.04692e-05
2.04949e-05
1.98754e-05
1.86064e-05
1.66755e-05
1.40641e-05
1.07582e-05
6.75775e-06
2.07085e-06
-3.31013e-06
-9.40131e-06
-1.62087e-05
-2.37256e-05
-3.19454e-05
-4.08628e-05
-5.04803e-05
-6.0798e-05
-7.18117e-05
-8.35103e-05
-9.58816e-05
-0.000108918
-0.000122609
-0.000136946
-0.000151921
-0.000167524
-0.000183743
-0.000200563
-0.000217966
-0.000235938
-0.000254466
-0.00027354
-0.000293143
-0.000313253
-0.000333847
-0.000354905
-0.000376417
-0.000398375
-0.000420766
-0.000443562
-0.000466737
-0.00049027
-0.000514153
-0.000538382
-0.000562943
-0.00058781
-0.000612953
-0.000638348
-0.000663979
-0.000689838
-0.000715915
-0.000742196
-0.000768654
-0.000795256
-0.000821976
-0.000848796
-0.000875706
-0.000902696
-0.000929744
-0.000956825
-0.000983913
-0.00101098
-0.00103803
-0.00106502
-0.00109196
-0.00111882
-0.00114558
-0.00117221
-0.00119869
-0.001225
-0.00125113
-0.00127705
-0.00130275
-0.0013282
-0.00135338
-0.00137827
-0.00140286
-0.00142712
-0.00145105
-0.00147463
-0.00149783
-0.00152064
-0.00154303
-0.001565
-0.00158651
-0.00160758
-0.00162817
-0.00164827
-0.00166786
-0.00168692
-0.00170543
-0.00172338
-0.00174076
-0.00175756
-0.00177375
-0.00178934
-0.00180429
-0.00181861
-0.00183227
-0.00184528
-0.00185763
-0.00186929
-0.00188027
-0.00189055
-0.00190014
-0.00190902
-0.00191721
-0.00192469
-0.00193147
-0.00193754
-0.00194291
-0.00194758
-0.00195153
-0.00195479
-0.00195736
-0.00195924
-0.00196047
-0.00196106
-0.00196101
-0.00196036
-0.0019591
-0.00195727
-0.00195488
-0.00195196
-0.00194855
-0.00194467
-0.00194035
-0.00193564
-0.00193056
-0.00192515
-0.00191944
-0.00191346
-0.00190723
-0.00190079
-0.00189416
-0.00188735
-0.00188043
-0.00187343
-0.00186578
-0.00185693
-9.38624e-05
-8.39295e-05
-7.54347e-05
-6.77716e-05
-6.02614e-05
-5.29458e-05
-4.58813e-05
-3.90823e-05
-3.25592e-05
-2.63293e-05
-2.04154e-05
-1.48439e-05
-9.64945e-06
-4.85508e-06
-4.89678e-07
3.40965e-06
6.80628e-06
9.67284e-06
1.1993e-05
1.37491e-05
1.49133e-05
1.54552e-05
1.53622e-05
1.46352e-05
1.32629e-05
1.12242e-05
8.50437e-06
5.10348e-06
1.02538e-06
-3.73356e-06
-9.18642e-06
-1.53472e-05
-2.22114e-05
-2.97692e-05
-3.80185e-05
-4.69611e-05
-5.65985e-05
-6.69262e-05
-7.79368e-05
-8.96218e-05
-0.00010197
-0.000114972
-0.000128621
-0.000142908
-0.000157825
-0.000173362
-0.000189508
-0.000206245
-0.000223557
-0.000241429
-0.000259852
-0.000278814
-0.000298296
-0.000318274
-0.000338726
-0.000359639
-0.000381006
-0.000402816
-0.000425048
-0.000447674
-0.000470672
-0.000494029
-0.000517739
-0.000541793
-0.000566173
-0.00059085
-0.000615797
-0.000640992
-0.000666424
-0.000692087
-0.00071797
-0.000744051
-0.000770299
-0.000796685
-0.000823188
-0.000849795
-0.000876498
-0.000903277
-0.000930111
-0.000956973
-0.00098384
-0.00101069
-0.00103752
-0.00106431
-0.00109103
-0.00111768
-0.00114422
-0.00117064
-0.00119691
-0.00122302
-0.00124894
-0.00127466
-0.00130016
-0.00132541
-0.00135039
-0.00137509
-0.00139949
-0.00142357
-0.00144732
-0.00147072
-0.00149375
-0.00151639
-0.00153862
-0.00156042
-0.00158179
-0.00160271
-0.00162317
-0.00164314
-0.0016626
-0.00168154
-0.00169994
-0.00171779
-0.00173508
-0.00175178
-0.0017679
-0.00178341
-0.0017983
-0.00181256
-0.00182619
-0.00183916
-0.00185148
-0.00186313
-0.0018741
-0.00188438
-0.00189398
-0.00190289
-0.00191111
-0.00191864
-0.00192547
-0.0019316
-0.00193704
-0.00194178
-0.00194582
-0.00194917
-0.00195183
-0.00195382
-0.00195516
-0.00195585
-0.00195592
-0.00195536
-0.00195421
-0.00195248
-0.00195017
-0.00194732
-0.00194396
-0.00194011
-0.00193581
-0.00193108
-0.00192595
-0.00192045
-0.0019146
-0.00190843
-0.00190196
-0.0018952
-0.00188817
-0.00188089
-0.0018734
-0.00186577
-0.0018573
-0.0018474
-0.000102846
-9.19194e-05
-8.2639e-05
-7.43451e-05
-6.62849e-05
-5.84985e-05
-5.10419e-05
-4.39135e-05
-3.7115e-05
-3.06631e-05
-2.45818e-05
-1.88922e-05
-1.36179e-05
-8.77719e-06
-4.40184e-06
-5.29477e-07
2.81641e-06
5.62279e-06
7.87557e-06
9.54755e-06
1.06119e-05
1.10529e-05
1.08675e-05
1.0049e-05
8.57865e-06
6.43727e-06
3.62433e-06
1.44515e-07
-4.00412e-06
-8.83725e-06
-1.4366e-05
-2.05931e-05
-2.75089e-05
-3.51081e-05
-4.3392e-05
-5.23659e-05
-6.20279e-05
-7.23702e-05
-8.33847e-05
-9.5064e-05
-0.000107398
-0.000120377
-0.000133995
-0.000148245
-0.000163118
-0.000178603
-0.000194686
-0.000211352
-0.000228586
-0.000246375
-0.000264709
-0.000283575
-0.000302948
-0.000322807
-0.000343135
-0.000363923
-0.000385164
-0.000406842
-0.000428929
-0.0004514
-0.00047424
-0.000497443
-0.000521
-0.000544898
-0.000569113
-0.000593615
-0.000618382
-0.000643398
-0.000668654
-0.000694143
-0.000719849
-0.000745745
-0.0007718
-0.000797989
-0.000824297
-0.000850714
-0.000877226
-0.000903814
-0.000930451
-0.000957113
-0.000983779
-0.00101043
-0.00103707
-0.00106366
-0.00109019
-0.00111665
-0.001143
-0.00116922
-0.0011953
-0.00122122
-0.00124696
-0.00127249
-0.0012978
-0.00132287
-0.00134768
-0.0013722
-0.00139643
-0.00142035
-0.00144394
-0.00146718
-0.00149005
-0.00151254
-0.00153462
-0.00155629
-0.00157753
-0.00159832
-0.00161865
-0.00163851
-0.00165786
-0.0016767
-0.001695
-0.00171276
-0.00172997
-0.0017466
-0.00176265
-0.0017781
-0.00179294
-0.00180716
-0.00182075
-0.0018337
-0.001846
-0.00185764
-0.00186861
-0.00187891
-0.00188852
-0.00189746
-0.00190571
-0.00191328
-0.00192017
-0.00192637
-0.00193187
-0.00193668
-0.0019408
-0.00194423
-0.00194698
-0.00194906
-0.00195049
-0.00195128
-0.00195144
-0.00195097
-0.0019499
-0.00194824
-0.00194599
-0.00194319
-0.00193986
-0.00193602
-0.0019317
-0.00192692
-0.00192172
-0.0019161
-0.00191008
-0.0019037
-0.00189695
-0.00188986
-0.00188243
-0.00187466
-0.00186662
-0.00185835
-0.00184909