/*--------------------------------*- C++ -*----------------------------------*\
  =========                 |
  \\      /  F ield         | OpenFOAM: The Open Source CFD Toolbox
   \\    /   O peration     | Website:  https://openfoam.org
    \\  /    A nd           | Version:  7
     \\/     M anipulation  |
\*---------------------------------------------------------------------------*/
FoamFile
{
    version     2.0;
    format      ascii;
    class       surfaceScalarField;
    location    "0.3125";
    object      phi;
}
// * * * * * * * * * * * * * * * * * * * * * * * * * * * * * * * * * * * * * //

dimensions      [0 3 -1 0 0 0 0];

internalField   nonuniform List<scalar> 
25360
(
1.14285e-10
-1.14346e-10
3.5954e-10
-2.45261e-10
6.04151e-10
-2.44614e-10
7.65007e-10
-1.60856e-10
7.97977e-10
-3.29724e-11
6.81258e-10
1.16715e-10
4.0622e-10
2.75031e-10
-2.78054e-11
4.34018e-10
-6.16684e-10
5.88872e-10
-1.35339e-09
7.36703e-10
-2.22917e-09
8.75771e-10
-3.23424e-09
1.00507e-09
-4.3583e-09
1.12406e-09
-5.59083e-09
1.23253e-09
-6.92132e-09
1.33048e-09
-8.33939e-09
1.41806e-09
-9.83493e-09
1.49554e-09
-1.13982e-08
1.56324e-09
-1.30197e-08
1.62156e-09
-1.46906e-08
1.67091e-09
-1.64024e-08
1.71175e-09
-1.81469e-08
1.74455e-09
-1.99167e-08
1.76977e-09
-2.17046e-08
1.78789e-09
-2.3504e-08
1.79939e-09
-2.53087e-08
1.80473e-09
-2.71131e-08
1.80438e-09
-2.89119e-08
1.79878e-09
-3.07002e-08
1.78837e-09
-3.24738e-08
1.77358e-09
-3.42286e-08
1.75481e-09
-3.59611e-08
1.73246e-09
-3.7668e-08
1.70689e-09
-3.93464e-08
1.67847e-09
-4.0994e-08
1.64753e-09
-4.26084e-08
1.6144e-09
-4.41877e-08
1.57937e-09
-4.57305e-08
1.54272e-09
-4.72352e-08
1.50474e-09
-4.87008e-08
1.46565e-09
-5.01265e-08
1.42569e-09
-5.15116e-08
1.38507e-09
-5.28556e-08
1.34399e-09
-5.41582e-08
1.30263e-09
-5.54194e-08
1.26114e-09
-5.6639e-08
1.21968e-09
-5.78174e-08
1.17838e-09
-5.89548e-08
1.13736e-09
-6.00515e-08
1.09672e-09
-6.11081e-08
1.05656e-09
-6.2125e-08
1.01696e-09
-6.3103e-08
9.77986e-10
-6.40427e-08
9.39698e-10
-6.49448e-08
9.02143e-10
-6.58102e-08
8.6536e-10
-6.66396e-08
8.29379e-10
-6.74338e-08
7.94219e-10
-6.81937e-08
7.59893e-10
-6.89201e-08
7.26407e-10
-6.96139e-08
6.93757e-10
-7.02758e-08
6.61936e-10
-7.09067e-08
6.30928e-10
-7.15074e-08
6.00714e-10
-7.20787e-08
5.71267e-10
-7.26213e-08
5.42557e-10
-7.31358e-08
5.14548e-10
-7.3623e-08
4.872e-10
-7.40835e-08
4.60471e-10
-7.45178e-08
4.34311e-10
-7.49265e-08
4.08672e-10
-7.531e-08
3.83499e-10
-7.56687e-08
3.58735e-10
-7.6003e-08
3.34322e-10
-7.63132e-08
3.10196e-10
-7.65995e-08
2.86296e-10
-7.68621e-08
2.62556e-10
-7.7101e-08
2.38907e-10
-7.73162e-08
2.1528e-10
-7.75078e-08
1.91604e-10
-7.76757e-08
1.67808e-10
-7.78195e-08
1.43819e-10
-7.7939e-08
1.19564e-10
-7.8034e-08
9.49678e-11
-7.8104e-08
6.99569e-11
-7.81484e-08
4.44569e-11
-7.81668e-08
1.83935e-11
-7.81585e-08
-8.30714e-12
-7.81228e-08
-3.57185e-11
-7.80589e-08
-6.39126e-11
-7.79659e-08
-9.296e-11
-7.7843e-08
-1.22929e-10
-7.76891e-08
-1.53887e-10
-7.75032e-08
-1.85896e-10
-7.72842e-08
-2.19019e-10
-7.70309e-08
-2.53314e-10
-7.6742e-08
-2.88834e-10
-7.64164e-08
-3.25628e-10
-7.60527e-08
-3.6374e-10
-7.56495e-08
-4.03207e-10
-7.52054e-08
-4.44061e-10
-7.47191e-08
-4.86327e-10
-7.41891e-08
-5.30021e-10
-7.36139e-08
-5.75151e-10
-7.29922e-08
-6.21716e-10
-7.23225e-08
-6.69705e-10
-7.16034e-08
-7.19094e-10
-7.08336e-08
-7.69848e-10
-7.00116e-08
-8.21922e-10
-6.91364e-08
-8.75253e-10
-6.82066e-08
-9.29766e-10
-6.72213e-08
-9.85372e-10
-6.61793e-08
-1.04196e-09
-6.50799e-08
-1.09941e-09
-6.39223e-08
-1.15758e-09
-6.2706e-08
-1.21631e-09
-6.14306e-08
-1.27542e-09
-6.00959e-08
-1.33471e-09
-5.87019e-08
-1.39396e-09
-5.7249e-08
-1.45293e-09
-5.57376e-08
-1.51136e-09
-5.41686e-08
-1.56896e-09
-5.25432e-08
-1.62543e-09
-5.08628e-08
-1.68045e-09
-4.91291e-08
-1.73367e-09
-4.73444e-08
-1.78471e-09
-4.55112e-08
-1.8332e-09
-4.36325e-08
-1.87872e-09
-4.17116e-08
-1.92085e-09
-3.97525e-08
-1.95914e-09
-3.77594e-08
-1.99314e-09
-3.5737e-08
-2.02237e-09
-3.36906e-08
-2.04635e-09
-3.16261e-08
-2.06457e-09
-2.95495e-08
-2.07654e-09
-2.74678e-08
-2.08174e-09
-2.53881e-08
-2.07966e-09
-2.33184e-08
-2.06977e-09
-2.12668e-08
-2.05157e-09
-1.92422e-08
-2.02456e-09
-1.7254e-08
-1.98823e-09
-1.53119e-08
-1.9421e-09
-1.34262e-08
-1.88572e-09
-1.16075e-08
-1.81866e-09
-9.86701e-09
-1.74051e-09
-8.21607e-09
-1.65094e-09
-6.66642e-09
-1.54965e-09
-5.22996e-09
-1.43646e-09
-3.91869e-09
-1.31127e-09
-2.74452e-09
-1.17417e-09
-1.71905e-09
-1.02546e-09
-8.53275e-10
-8.65783e-10
-1.57011e-10
-6.96267e-10
3.61826e-10
-5.18835e-10
6.98487e-10
-3.36659e-10
8.53459e-10
-1.54979e-10
8.35971e-10
1.74718e-11
6.69839e-10
1.66121e-10
4.03817e-10
2.66035e-10
1.30726e-10
2.73145e-10
1.30791e-10
2.45423e-10
-3.59774e-10
6.33968e-10
-6.33814e-10
9.49974e-10
-5.6063e-10
1.04673e-09
-2.57616e-10
8.28382e-10
1.85366e-10
2.38455e-10
7.06636e-10
-7.51424e-10
1.2649e-09
-2.15028e-09
1.83286e-09
-3.95398e-09
2.39257e-09
-6.14956e-09
2.93227e-09
-8.71812e-09
3.44433e-09
-1.1637e-08
3.92393e-09
-1.48811e-08
4.36814e-09
-1.84239e-08
4.77538e-09
-2.22385e-08
5.14504e-09
-2.62976e-08
5.47717e-09
-3.05744e-08
5.77233e-09
-3.50426e-08
6.03144e-09
-3.96768e-08
6.25569e-09
-4.44523e-08
6.44645e-09
-4.93458e-08
6.60524e-09
-5.43349e-08
6.73366e-09
-5.93985e-08
6.83338e-09
-6.45167e-08
6.90611e-09
-6.96709e-08
6.95355e-09
-7.48436e-08
6.97742e-09
-8.00187e-08
6.97943e-09
-8.51811e-08
6.96123e-09
-9.03172e-08
6.92445e-09
-9.54143e-08
6.87069e-09
-1.00461e-07
6.80148e-09
-1.05447e-07
6.71829e-09
-1.10362e-07
6.62254e-09
-1.152e-07
6.51559e-09
-1.19951e-07
6.39873e-09
-1.2461e-07
6.27318e-09
-1.2917e-07
6.1401e-09
-1.33628e-07
6.00058e-09
-1.37979e-07
5.85564e-09
-1.4222e-07
5.70622e-09
-1.46347e-07
5.55323e-09
-1.5036e-07
5.39747e-09
-1.54255e-07
5.23971e-09
-1.58033e-07
5.08064e-09
-1.61693e-07
4.92091e-09
-1.65234e-07
4.76108e-09
-1.68658e-07
4.60168e-09
-1.71964e-07
4.44318e-09
-1.75153e-07
4.286e-09
-1.78227e-07
4.13049e-09
-1.81187e-07
3.97699e-09
-1.84035e-07
3.82577e-09
-1.86772e-07
3.67706e-09
-1.89401e-07
3.53106e-09
-1.91923e-07
3.38791e-09
-1.94342e-07
3.24775e-09
-1.96658e-07
3.11066e-09
-1.98875e-07
2.97669e-09
-2.00995e-07
2.84588e-09
-2.03019e-07
2.71821e-09
-2.04951e-07
2.59366e-09
-2.06792e-07
2.47218e-09
-2.08545e-07
2.3537e-09
-2.10212e-07
2.23812e-09
-2.11795e-07
2.12533e-09
-2.13295e-07
2.01519e-09
-2.14716e-07
1.90756e-09
-2.16057e-07
1.80226e-09
-2.17322e-07
1.69913e-09
-2.18511e-07
1.59797e-09
-2.19627e-07
1.49858e-09
-2.20669e-07
1.40073e-09
-2.21638e-07
1.30421e-09
-2.22537e-07
1.20878e-09
-2.23365e-07
1.11419e-09
-2.24123e-07
1.0202e-09
-2.2481e-07
9.26536e-10
-2.25428e-07
8.32944e-10
-2.25975e-07
7.39151e-10
-2.26452e-07
6.44883e-10
-2.26859e-07
5.49861e-10
-2.27193e-07
4.53806e-10
-2.27454e-07
3.56435e-10
-2.27642e-07
2.57463e-10
-2.27754e-07
1.56605e-10
-2.27789e-07
5.35803e-11
-2.27746e-07
-5.18928e-11
-2.27621e-07
-1.60091e-10
-2.27414e-07
-2.71289e-10
-2.27121e-07
-3.85753e-10
-2.2674e-07
-5.03743e-10
-2.26269e-07
-6.25511e-10
-2.25703e-07
-7.51298e-10
-2.25041e-07
-8.81332e-10
-2.24278e-07
-1.01583e-09
-2.23412e-07
-1.15499e-09
-2.22439e-07
-1.29899e-09
-2.21355e-07
-1.44799e-09
-2.20156e-07
-1.60213e-09
-2.18838e-07
-1.76153e-09
-2.17398e-07
-1.92626e-09
-2.15832e-07
-2.09638e-09
-2.14135e-07
-2.27191e-09
-2.12304e-07
-2.45284e-09
-2.10335e-07
-2.6391e-09
-2.08223e-07
-2.83061e-09
-2.05966e-07
-3.02721e-09
-2.03559e-07
-3.22871e-09
-2.00999e-07
-3.43488e-09
-1.98284e-07
-3.64539e-09
-1.95409e-07
-3.85991e-09
-1.92373e-07
-4.07799e-09
-1.89173e-07
-4.29917e-09
-1.85808e-07
-4.52288e-09
-1.82276e-07
-4.74849e-09
-1.78576e-07
-4.97531e-09
-1.74708e-07
-5.20257e-09
-1.70673e-07
-5.42941e-09
-1.66471e-07
-5.65491e-09
-1.62104e-07
-5.87806e-09
-1.57575e-07
-6.09777e-09
-1.52888e-07
-6.31287e-09
-1.48046e-07
-6.52211e-09
-1.43056e-07
-6.72417e-09
-1.37923e-07
-6.91763e-09
-1.32655e-07
-7.10104e-09
-1.27261e-07
-7.27282e-09
-1.2175e-07
-7.43137e-09
-1.16134e-07
-7.57502e-09
-1.10426e-07
-7.70201e-09
-1.04637e-07
-7.81057e-09
-9.87848e-08
-7.89887e-09
-9.28843e-08
-7.96505e-09
-8.69537e-08
-8.00721e-09
-8.1012e-08
-8.02346e-09
-7.50797e-08
-8.01189e-09
-6.91789e-08
-7.9706e-09
-6.33328e-08
-7.89771e-09
-5.75659e-08
-7.79141e-09
-5.19042e-08
-7.64992e-09
-4.63748e-08
-7.47155e-09
-4.10058e-08
-7.25471e-09
-3.58265e-08
-6.99798e-09
-3.08669e-08
-6.70009e-09
-2.61578e-08
-6.36004e-09
-2.17303e-08
-5.9771e-09
-1.76158e-08
-5.55098e-09
-1.38452e-08
-5.08192e-09
-1.04485e-08
-4.57088e-09
-7.45407e-09
-4.01986e-09
-4.88756e-09
-3.43229e-09
-2.77023e-09
-2.81361e-09
-1.11677e-09
-2.17231e-09
6.79306e-11
-1.52135e-09
7.93484e-10
-8.80519e-10
1.09095e-09
-2.79989e-10
1.0227e-09
2.34334e-10
6.95302e-10
5.93351e-10
2.73069e-10
6.95295e-10
4.03901e-10
2.45808e-10
-6.05583e-10
5.63484e-10
-9.51493e-10
6.97846e-10
-6.94997e-10
4.74903e-10
-3.46811e-11
-2.25038e-10
8.85297e-10
-1.47786e-09
1.95945e-09
-3.32544e-09
3.11248e-09
-5.78432e-09
4.29174e-09
-8.85252e-09
5.46076e-09
-1.25147e-08
6.59444e-09
-1.67461e-08
7.67571e-09
-2.15154e-08
8.69321e-09
-2.67869e-08
9.63966e-09
-3.25222e-08
1.05107e-08
-3.86814e-08
1.13042e-08
-4.52237e-08
1.20195e-08
-5.21085e-08
1.26572e-08
-5.92958e-08
1.32188e-08
-6.67465e-08
1.37063e-08
-7.44226e-08
1.41225e-08
-8.22876e-08
1.44702e-08
-9.03066e-08
1.47527e-08
-9.84466e-08
1.49734e-08
-1.06676e-07
1.51357e-08
-1.14966e-07
1.52433e-08
-1.23288e-07
1.52997e-08
-1.31617e-07
1.53085e-08
-1.39929e-07
1.52732e-08
-1.48202e-07
1.51973e-08
-1.56416e-07
1.50842e-08
-1.64551e-07
1.49372e-08
-1.72592e-07
1.47594e-08
-1.80524e-07
1.4554e-08
-1.88332e-07
1.43238e-08
-1.96005e-07
1.40716e-08
-2.03532e-07
1.38002e-08
-2.10904e-07
1.35119e-08
-2.18112e-07
1.32092e-08
-2.25151e-07
1.28944e-08
-2.32014e-07
1.25694e-08
-2.38697e-07
1.22362e-08
-2.45197e-07
1.18967e-08
-2.51509e-07
1.15525e-08
-2.57634e-07
1.12051e-08
-2.63569e-07
1.0856e-08
-2.69314e-07
1.05063e-08
-2.7487e-07
1.01573e-08
-2.80237e-07
9.81004e-09
-2.85416e-07
9.46536e-09
-2.9041e-07
9.12412e-09
-2.9522e-07
8.78703e-09
-2.99849e-07
8.45471e-09
-3.04299e-07
8.12767e-09
-3.08575e-07
7.80637e-09
-3.12678e-07
7.49114e-09
-3.16612e-07
7.18227e-09
-3.20382e-07
6.87996e-09
-3.23989e-07
6.58433e-09
-3.27439e-07
6.29547e-09
-3.30734e-07
6.01336e-09
-3.33878e-07
5.73797e-09
-3.36875e-07
5.46918e-09
-3.39728e-07
5.20685e-09
-3.42441e-07
4.95077e-09
-3.45016e-07
4.70071e-09
-3.47458e-07
4.45637e-09
-3.49768e-07
4.21745e-09
-3.51949e-07
3.98358e-09
-3.54004e-07
3.75437e-09
-3.55936e-07
3.52942e-09
-3.57745e-07
3.30828e-09
-3.59435e-07
3.09049e-09
-3.61006e-07
2.87554e-09
-3.62461e-07
2.66294e-09
-3.63798e-07
2.45215e-09
-3.65021e-07
2.24263e-09
-3.66128e-07
2.03381e-09
-3.6712e-07
1.82512e-09
-3.67997e-07
1.61597e-09
-3.68758e-07
1.40576e-09
-3.69402e-07
1.19389e-09
-3.69928e-07
9.79761e-10
-3.70334e-07
7.62744e-10
-3.70619e-07
5.4223e-10
-3.7078e-07
3.176e-10
-3.70815e-07
8.82437e-11
-3.7072e-07
-1.46448e-10
-3.70493e-07
-3.87075e-10
-3.7013e-07
-6.34227e-10
-3.69628e-07
-8.8848e-10
-3.68981e-07
-1.1504e-09
-3.68186e-07
-1.42051e-09
-3.67238e-07
-1.69935e-09
-3.66132e-07
-1.9874e-09
-3.64863e-07
-2.28511e-09
-3.63425e-07
-2.59292e-09
-3.61812e-07
-2.9112e-09
-3.6002e-07
-3.24029e-09
-3.58042e-07
-3.58048e-09
-3.55871e-07
-3.932e-09
-3.53502e-07
-4.29501e-09
-3.50929e-07
-4.66963e-09
-3.48145e-07
-5.05587e-09
-3.45144e-07
-5.45369e-09
-3.41921e-07
-5.86296e-09
-3.38468e-07
-6.28342e-09
-3.3478e-07
-6.71477e-09
-3.30852e-07
-7.15655e-09
-3.26679e-07
-7.60821e-09
-3.22255e-07
-8.06908e-09
-3.17577e-07
-8.53836e-09
-3.1264e-07
-9.0151e-09
-3.07441e-07
-9.49824e-09
-3.01977e-07
-9.98655e-09
-2.96247e-07
-1.04787e-08
-2.90249e-07
-1.0973e-08
-2.83984e-07
-1.14679e-08
-2.77452e-07
-1.19616e-08
-2.70655e-07
-1.24519e-08
-2.63596e-07
-1.29366e-08
-2.5628e-07
-1.34135e-08
-2.48713e-07
-1.38799e-08
-2.40902e-07
-1.43332e-08
-2.32856e-07
-1.47704e-08
-2.24585e-07
-1.51885e-08
-2.16102e-07
-1.55844e-08
-2.0742e-07
-1.59546e-08
-1.98556e-07
-1.62957e-08
-1.89527e-07
-1.6604e-08
-1.80353e-07
-1.68758e-08
-1.71056e-07
-1.71074e-08
-1.6166e-07
-1.72947e-08
-1.52192e-07
-1.74338e-08
-1.42678e-07
-1.75206e-08
-1.33151e-07
-1.75512e-08
-1.23641e-07
-1.75214e-08
-1.14184e-07
-1.74273e-08
-1.04817e-07
-1.7265e-08
-9.55777e-08
-1.70307e-08
-8.6507e-08
-1.67206e-08
-7.7647e-08
-1.63315e-08
-6.90416e-08
-1.58601e-08
-6.07358e-08
-1.53037e-08
-5.2776e-08
-1.466e-08
-4.52089e-08
-1.39271e-08
-3.80819e-08
-1.31042e-08
-3.14417e-08
-1.21912e-08
-2.53342e-08
-1.11894e-08
-1.98033e-08
-1.01019e-08
-1.48892e-08
-8.93389e-09
-1.06275e-08
-7.69399e-09
-7.04611e-09
-6.39503e-09
-4.16239e-09
-5.05604e-09
-1.9789e-09
-3.70485e-09
-4.77604e-10
-2.38181e-09
3.8772e-10
-1.14528e-09
7.01204e-10
-7.91126e-11
5.96095e-10
6.98457e-10
2.66878e-10
1.02445e-09
6.70782e-10
1.63772e-10
-7.69359e-10
2.64791e-10
-1.05251e-09
4.43181e-11
-4.74528e-10
-6.78019e-10
6.87651e-10
-2.02898e-09
2.23625e-09
-4.09179e-09
4.02225e-09
-6.91455e-09
5.93522e-09
-1.05178e-08
7.89496e-09
-1.49008e-08
9.84373e-09
-2.00467e-08
1.17404e-08
-2.59268e-08
1.35558e-08
-3.25037e-08
1.52701e-08
-3.9734e-08
1.68699e-08
-4.757e-08
1.83467e-08
-5.59616e-08
1.96957e-08
-6.48572e-08
2.09152e-08
-7.42052e-08
2.20051e-08
-8.39537e-08
2.29673e-08
-9.40522e-08
2.38048e-08
-1.04451e-07
2.45216e-08
-1.15103e-07
2.51222e-08
-1.25962e-07
2.56118e-08
-1.36985e-07
2.59958e-08
-1.48129e-07
2.628e-08
-1.59356e-07
2.64703e-08
-1.70629e-07
2.65726e-08
-1.81913e-07
2.6593e-08
-1.93177e-07
2.65373e-08
-2.04392e-07
2.64115e-08
-2.15529e-07
2.62212e-08
-2.26564e-07
2.59722e-08
-2.37474e-07
2.56696e-08
-2.48239e-07
2.53189e-08
-2.5884e-07
2.4925e-08
-2.69261e-07
2.44927e-08
-2.79488e-07
2.40266e-08
-2.89507e-07
2.3531e-08
-2.99307e-07
2.30099e-08
-3.0888e-07
2.24673e-08
-3.18218e-07
2.19067e-08
-3.27313e-07
2.13315e-08
-3.36161e-07
2.07448e-08
-3.44758e-07
2.01496e-08
-3.53101e-07
1.95484e-08
-3.61189e-07
1.89437e-08
-3.6902e-07
1.83377e-08
-3.76596e-07
1.77325e-08
-3.83915e-07
1.71298e-08
-3.90981e-07
1.65313e-08
-3.97796e-07
1.59384e-08
-4.04361e-07
1.53524e-08
-4.10681e-07
1.47743e-08
-4.16758e-07
1.42051e-08
-4.22597e-07
1.36455e-08
-4.28202e-07
1.30962e-08
-4.33578e-07
1.25577e-08
-4.38728e-07
1.20303e-08
-4.43658e-07
1.15142e-08
-4.48372e-07
1.10097e-08
-4.52875e-07
1.05167e-08
-4.57173e-07
1.00352e-08
-4.61268e-07
9.56491e-09
-4.65167e-07
9.10569e-09
-4.68874e-07
8.65717e-09
-4.72392e-07
8.21894e-09
-4.75726e-07
7.79051e-09
-4.7888e-07
7.37136e-09
-4.81857e-07
6.96086e-09
-4.84661e-07
6.55835e-09
-4.87295e-07
6.16314e-09
-4.89761e-07
5.77445e-09
-4.92062e-07
5.39148e-09
-4.942e-07
5.01339e-09
-4.96176e-07
4.6393e-09
-4.97992e-07
4.2683e-09
-4.99649e-07
3.89944e-09
-5.01147e-07
3.53177e-09
-5.02486e-07
3.16429e-09
-5.03666e-07
2.79599e-09
-5.04686e-07
2.42584e-09
-5.05545e-07
2.0528e-09
-5.06241e-07
1.67583e-09
-5.06772e-07
1.29386e-09
-5.07136e-07
9.05847e-10
-5.07329e-07
5.10725e-10
-5.07348e-07
1.07442e-10
-5.0719e-07
-3.05044e-10
-5.06849e-07
-7.27762e-10
-5.06322e-07
-1.16172e-09
-5.05602e-07
-1.60791e-09
-5.04685e-07
-2.06729e-09
-5.03565e-07
-2.54078e-09
-5.02235e-07
-3.02925e-09
-5.00689e-07
-3.53355e-09
-4.9892e-07
-4.05445e-09
-4.9692e-07
-4.59266e-09
-4.94682e-07
-5.14882e-09
-4.92199e-07
-5.72351e-09
-4.89462e-07
-6.3172e-09
-4.86464e-07
-6.93027e-09
-4.83196e-07
-7.56298e-09
-4.7965e-07
-8.21551e-09
-4.75818e-07
-8.88786e-09
-4.71692e-07
-9.57993e-09
-4.67263e-07
-1.02915e-08
-4.62525e-07
-1.1022e-08
-4.57469e-07
-1.1771e-08
-4.52088e-07
-1.25376e-08
-4.46375e-07
-1.3321e-08
-4.40324e-07
-1.41198e-08
-4.3393e-07
-1.49326e-08
-4.27187e-07
-1.57579e-08
-4.20091e-07
-1.65938e-08
-4.1264e-07
-1.74381e-08
-4.0483e-07
-1.82884e-08
-3.96661e-07
-1.91421e-08
-3.88133e-07
-1.99962e-08
-3.79247e-07
-2.08475e-08
-3.70006e-07
-2.16925e-08
-3.60415e-07
-2.25275e-08
-3.50481e-07
-2.33482e-08
-3.4021e-07
-2.41503e-08
-3.29614e-07
-2.49291e-08
-3.18705e-07
-2.56798e-08
-3.07497e-07
-2.6397e-08
-2.96006e-07
-2.70753e-08
-2.84251e-07
-2.77089e-08
-2.72255e-07
-2.82919e-08
-2.60041e-07
-2.88181e-08
-2.47636e-07
-2.92811e-08
-2.35069e-07
-2.96744e-08
-2.22372e-07
-2.99913e-08
-2.09581e-07
-3.02251e-08
-1.96732e-07
-3.03689e-08
-1.83868e-07
-3.04159e-08
-1.7103e-07
-3.03595e-08
-1.58264e-07
-3.01928e-08
-1.4562e-07
-2.99094e-08
-1.33147e-07
-2.95029e-08
-1.20901e-07
-2.89676e-08
-1.08934e-07
-2.82977e-08
-9.73062e-08
-2.74883e-08
-8.60748e-08
-2.65352e-08
-7.52999e-08
-2.54348e-08
-6.5042e-08
-2.4185e-08
-5.53614e-08
-2.27847e-08
-4.63176e-08
-2.12349e-08
-3.79682e-08
-1.95388e-08
-3.03674e-08
-1.77026e-08
-2.35647e-08
-1.57366e-08
-1.76023e-08
-1.36563e-08
-1.25128e-08
-1.14845e-08
-8.31514e-09
-9.2537e-09
-5.01043e-09
-7.00958e-09
-2.57605e-09
-4.81621e-09
-9.58717e-10
-2.76262e-09
-6.60172e-11
-9.71791e-10
2.4298e-10
3.89491e-10
1.69004e-10
1.0984e-09
8.39774e-10
3.77612e-11
-8.07126e-10
-1.74136e-10
-8.40625e-10
-8.70502e-10
2.21832e-10
-2.22141e-09
2.03856e-09
-4.34865e-09
4.36349e-09
-7.33376e-09
7.00735e-09
-1.12247e-08
9.82614e-09
-1.6042e-08
1.27122e-08
-2.17841e-08
1.55859e-08
-2.84324e-08
1.83886e-08
-3.59545e-08
2.10779e-08
-4.43082e-08
2.36239e-08
-5.34439e-08
2.60056e-08
-6.33068e-08
2.82095e-08
-7.38385e-08
3.02274e-08
-8.49788e-08
3.20554e-08
-9.66664e-08
3.36927e-08
-1.0884e-07
3.51412e-08
-1.2144e-07
3.64045e-08
-1.34406e-07
3.74878e-08
-1.47682e-07
3.83977e-08
-1.61211e-07
3.91411e-08
-1.74941e-07
3.97261e-08
-1.88822e-07
4.01608e-08
-2.02806e-07
4.04539e-08
-2.16847e-07
4.06141e-08
-2.30905e-07
4.06503e-08
-2.44938e-07
4.05711e-08
-2.58912e-07
4.03854e-08
-2.72793e-07
4.01016e-08
-2.86549e-07
3.97282e-08
-3.00152e-07
3.92733e-08
-3.13578e-07
3.87447e-08
-3.26803e-07
3.81499e-08
-3.39807e-07
3.74963e-08
-3.52571e-07
3.67906e-08
-3.65079e-07
3.60395e-08
-3.77318e-07
3.52491e-08
-3.89276e-07
3.44253e-08
-4.00943e-07
3.35736e-08
-4.12311e-07
3.2699e-08
-4.23372e-07
3.18063e-08
-4.34122e-07
3.09e-08
-4.44558e-07
2.99841e-08
-4.54677e-07
2.90623e-08
-4.64477e-07
2.81381e-08
-4.73959e-07
2.72144e-08
-4.83123e-07
2.62942e-08
-4.91972e-07
2.53798e-08
-5.00507e-07
2.44736e-08
-5.08732e-07
2.35773e-08
-5.1665e-07
2.26928e-08
-5.24267e-07
2.18213e-08
-5.31585e-07
2.09643e-08
-5.38612e-07
2.01225e-08
-5.45351e-07
1.92968e-08
-5.51808e-07
1.84877e-08
-5.5799e-07
1.76958e-08
-5.63901e-07
1.6921e-08
-5.69548e-07
1.61637e-08
-5.74936e-07
1.54235e-08
-5.80072e-07
1.47004e-08
-5.8496e-07
1.39938e-08
-5.89606e-07
1.33034e-08
-5.94016e-07
1.26285e-08
-5.98194e-07
1.19684e-08
-6.02145e-07
1.13222e-08
-6.05873e-07
1.06892e-08
-6.09383e-07
1.00681e-08
-6.12678e-07
9.45813e-09
-6.15761e-07
8.85796e-09
-6.18636e-07
8.26642e-09
-6.21305e-07
7.68223e-09
-6.2377e-07
7.10406e-09
-6.26032e-07
6.53054e-09
-6.28093e-07
5.96023e-09
-6.29953e-07
5.39167e-09
-6.31612e-07
4.82336e-09
-6.33069e-07
4.25378e-09
-6.34325e-07
3.68135e-09
-6.35377e-07
3.10452e-09
-6.36223e-07
2.52169e-09
-6.3686e-07
1.93127e-09
-6.37286e-07
1.33164e-09
-6.37496e-07
7.21216e-10
-6.37487e-07
9.84055e-11
-6.37254e-07
-5.38368e-10
-6.36791e-07
-1.19066e-09
-6.36093e-07
-1.85999e-09
-6.35153e-07
-2.54785e-09
-6.33964e-07
-3.25567e-09
-6.3252e-07
-3.98485e-09
-6.30813e-07
-4.73669e-09
-6.28834e-07
-5.51246e-09
-6.26575e-07
-6.31331e-09
-6.24028e-07
-7.14031e-09
-6.21182e-07
-7.99441e-09
-6.18029e-07
-8.87644e-09
-6.14559e-07
-9.78711e-09
-6.10762e-07
-1.0727e-08
-6.06629e-07
-1.16964e-08
-6.02149e-07
-1.26956e-08
-5.97312e-07
-1.37246e-08
-5.92109e-07
-1.47832e-08
-5.86529e-07
-1.58709e-08
-5.80564e-07
-1.69871e-08
-5.74204e-07
-1.81309e-08
-5.67441e-07
-1.9301e-08
-5.60266e-07
-2.04959e-08
-5.52672e-07
-2.17137e-08
-5.44652e-07
-2.29524e-08
-5.36201e-07
-2.42094e-08
-5.27313e-07
-2.54817e-08
-5.17985e-07
-2.67662e-08
-5.08214e-07
-2.80592e-08
-4.98e-07
-2.93567e-08
-4.87342e-07
-3.0654e-08
-4.76243e-07
-3.19464e-08
-4.64707e-07
-3.32286e-08
-4.5274e-07
-3.44946e-08
-4.40349e-07
-3.57384e-08
-4.27546e-07
-3.69533e-08
-4.14343e-07
-3.81322e-08
-4.00755e-07
-3.92677e-08
-3.86801e-07
-4.03518e-08
-3.725e-07
-4.13762e-08
-3.57876e-07
-4.23323e-08
-3.42957e-07
-4.32112e-08
-3.27772e-07
-4.40035e-08
-3.12353e-07
-4.46996e-08
-2.96738e-07
-4.52898e-08
-2.80965e-07
-4.57641e-08
-2.65078e-07
-4.61124e-08
-2.49122e-07
-4.63245e-08
-2.33148e-07
-4.63904e-08
-2.17207e-07
-4.63001e-08
-2.01356e-07
-4.60436e-08
-1.85654e-07
-4.56114e-08
-1.70163e-07
-4.49944e-08
-1.54946e-07
-4.4184e-08
-1.40072e-07
-4.31723e-08
-1.25608e-07
-4.19524e-08
-1.11625e-07
-4.05183e-08
-9.81937e-08
-3.88657e-08
-8.53868e-08
-3.69918e-08
-7.32752e-08
-3.48964e-08
-6.19284e-08
-3.25817e-08
-5.14135e-08
-3.00537e-08
-4.17932e-08
-2.7323e-08
-3.31238e-08
-2.4406e-08
-2.54533e-08
-2.13269e-08
-1.88179e-08
-1.81199e-08
-1.32389e-08
-1.48327e-08
-8.71809e-09
-1.15304e-08
-5.2327e-09
-8.30161e-09
-2.72948e-09
-5.26586e-09
-1.11795e-09
-2.58333e-09
-2.63089e-10
-4.65351e-10
2.32748e-11
8.12045e-10
8.63039e-10
-1.10593e-10
-6.96537e-10
-6.93985e-10
-2.57241e-10
-1.94602e-09
1.47386e-09
-4.01452e-09
4.10705e-09
-7.00728e-09
7.35624e-09
-1.09971e-08
1.09971e-08
-1.60264e-08
1.48554e-08
-2.21118e-08
1.87977e-08
-2.92489e-08
2.27229e-08
-3.74153e-08
2.6555e-08
-4.65752e-08
3.02378e-08
-5.66817e-08
3.37304e-08
-6.76799e-08
3.70038e-08
-7.95087e-08
4.00384e-08
-9.21032e-08
4.28219e-08
-1.05396e-07
4.53479e-08
-1.19317e-07
4.76142e-08
-1.33798e-07
4.96224e-08
-1.48771e-07
5.13767e-08
-1.64166e-07
5.28837e-08
-1.7992e-07
5.41513e-08
-1.95968e-07
5.5189e-08
-2.12249e-07
5.60072e-08
-2.28705e-07
5.66169e-08
-2.45281e-07
5.70296e-08
-2.61924e-07
5.72573e-08
-2.78586e-07
5.73118e-08
-2.9522e-07
5.72053e-08
-3.11784e-07
5.69497e-08
-3.28239e-07
5.65567e-08
-3.44549e-07
5.60379e-08
-3.6068e-07
5.54046e-08
-3.76603e-07
5.46675e-08
-3.9229e-07
5.38372e-08
-4.07718e-07
5.29238e-08
-4.22864e-07
5.19368e-08
-4.3771e-07
5.08854e-08
-4.52239e-07
4.97783e-08
-4.66438e-07
4.86236e-08
-4.80293e-07
4.7429e-08
-4.93796e-07
4.62016e-08
-5.06938e-07
4.49482e-08
-5.19713e-07
4.3675e-08
-5.32116e-07
4.23876e-08
-5.44145e-07
4.10913e-08
-5.55798e-07
3.97909e-08
-5.67074e-07
3.84907e-08
-5.77975e-07
3.71948e-08
-5.88501e-07
3.59065e-08
-5.98657e-07
3.46291e-08
-6.08445e-07
3.33652e-08
-6.17869e-07
3.21172e-08
-6.26935e-07
3.08873e-08
-6.35648e-07
2.9677e-08
-6.44013e-07
2.84878e-08
-6.52037e-07
2.73209e-08
-6.59726e-07
2.61769e-08
-6.67087e-07
2.50566e-08
-6.74127e-07
2.39603e-08
-6.80851e-07
2.2888e-08
-6.87267e-07
2.18396e-08
-6.93381e-07
2.08148e-08
-6.99201e-07
1.98132e-08
-7.04731e-07
1.8834e-08
-7.09979e-07
1.78763e-08
-7.1495e-07
1.69393e-08
-7.1965e-07
1.60217e-08
-7.24083e-07
1.51224e-08
-7.28255e-07
1.42398e-08
-7.32169e-07
1.33725e-08
-7.3583e-07
1.2519e-08
-7.39241e-07
1.16774e-08
-7.42405e-07
1.08461e-08
-7.45324e-07
1.00232e-08
-7.48e-07
9.2067e-09
-7.50435e-07
8.39467e-09
-7.52628e-07
7.58504e-09
-7.5458e-07
6.77572e-09
-7.56291e-07
5.96458e-09
-7.57759e-07
5.14943e-09
-7.58983e-07
4.32809e-09
-7.59959e-07
3.49832e-09
-7.60686e-07
2.6579e-09
-7.61159e-07
1.8046e-09
-7.61374e-07
9.36178e-10
-7.61326e-07
5.04229e-11
-7.61009e-07
-8.5486e-10
-7.60418e-07
-1.78183e-09
-7.59546e-07
-2.73262e-09
-7.58384e-07
-3.70928e-09
-7.56926e-07
-4.71382e-09
-7.55163e-07
-5.74816e-09
-7.53085e-07
-6.81412e-09
-7.50684e-07
-7.91344e-09
-7.4795e-07
-9.04771e-09
-7.44872e-07
-1.02184e-08
-7.41439e-07
-1.14268e-08
-7.37642e-07
-1.26741e-08
-7.33468e-07
-1.39613e-08
-7.28906e-07
-1.52889e-08
-7.23944e-07
-1.66577e-08
-7.18572e-07
-1.80678e-08
-7.12778e-07
-1.95191e-08
-7.06549e-07
-2.10115e-08
-6.99876e-07
-2.25442e-08
-6.92747e-07
-2.41163e-08
-6.85151e-07
-2.57264e-08
-6.7708e-07
-2.73727e-08
-6.68522e-07
-2.90532e-08
-6.59471e-07
-3.07652e-08
-6.49918e-07
-3.25056e-08
-6.39856e-07
-3.42709e-08
-6.29281e-07
-3.6057e-08
-6.18188e-07
-3.78593e-08
-6.06574e-07
-3.96727e-08
-5.94439e-07
-4.14916e-08
-5.81784e-07
-4.33095e-08
-5.68611e-07
-4.51196e-08
-5.54925e-07
-4.69145e-08
-5.40733e-07
-4.86861e-08
-5.26046e-07
-5.04257e-08
-5.10875e-07
-5.21241e-08
-4.95236e-07
-5.37713e-08
-4.79147e-07
-5.53569e-08
-4.62629e-07
-5.687e-08
-4.45706e-07
-5.8299e-08
-4.28406e-07
-5.96319e-08
-4.10761e-07
-6.08562e-08
-3.92806e-07
-6.1959e-08
-3.74578e-07
-6.29271e-08
-3.56121e-07
-6.37469e-08
-3.37481e-07
-6.44047e-08
-3.18706e-07
-6.48866e-08
-2.99852e-07
-6.51785e-08
-2.80976e-07
-6.52668e-08
-2.62139e-07
-6.51375e-08
-2.43405e-07
-6.47774e-08
-2.24843e-07
-6.41735e-08
-2.06523e-07
-6.33135e-08
-1.88521e-07
-6.2186e-08
-1.70913e-07
-6.07805e-08
-1.53778e-07
-5.90881e-08
-1.37195e-07
-5.71012e-08
-1.21246e-07
-5.48147e-08
-1.06012e-07
-5.22258e-08
-9.15731e-08
-4.93349e-08
-7.80082e-08
-4.61466e-08
-6.53918e-08
-4.26701e-08
-5.37936e-08
-3.89212e-08
-4.32761e-08
-3.49235e-08
-3.38924e-08
-3.07106e-08
-2.56829e-08
-2.63294e-08
-1.86725e-08
-2.18431e-08
-1.28664e-08
-1.73365e-08
-8.24593e-09
-1.2922e-08
-4.76397e-09
-8.74782e-09
-2.33987e-09
-5.00745e-09
-8.54611e-10
-1.9506e-09
-1.45831e-10
1.03274e-10
7.17203e-10
-2.68847e-10
-4.27695e-10
-1.25597e-09
7.29879e-10
-3.11209e-09
3.32996e-09
-5.95548e-09
6.95043e-09
-9.87358e-09
1.12743e-08
-1.4925e-08
1.60486e-08
-2.11423e-08
2.10727e-08
-2.85349e-08
2.61903e-08
-3.70924e-08
3.12804e-08
-4.67878e-08
3.62505e-08
-5.75806e-08
4.10305e-08
-6.94189e-08
4.55688e-08
-8.22428e-08
4.98276e-08
-9.59857e-08
5.37813e-08
-1.10577e-07
5.74128e-08
-1.25941e-07
6.07127e-08
-1.42005e-07
6.36774e-08
-1.5869e-07
6.63077e-08
-1.75922e-07
6.86084e-08
-1.93625e-07
7.05869e-08
-2.11727e-07
7.22531e-08
-2.30156e-07
7.36187e-08
-2.48846e-07
7.46967e-08
-2.6773e-07
7.55011e-08
-2.86747e-07
7.60466e-08
-3.05838e-07
7.63483e-08
-3.24948e-07
7.64219e-08
-3.44026e-07
7.62828e-08
-3.63022e-07
7.59465e-08
-3.81894e-07
7.54284e-08
-4.006e-07
7.47436e-08
-4.19102e-07
7.39066e-08
-4.37366e-07
7.29319e-08
-4.55362e-07
7.18332e-08
-4.73062e-07
7.06237e-08
-4.90441e-07
6.9316e-08
-5.07478e-07
6.79223e-08
-5.24154e-07
6.64539e-08
-5.40452e-07
6.49217e-08
-5.56359e-07
6.33358e-08
-5.71863e-07
6.17057e-08
-5.86955e-07
6.00403e-08
-6.01628e-07
5.83478e-08
-6.15876e-07
5.66357e-08
-6.29696e-07
5.49112e-08
-6.43085e-07
5.31805e-08
-6.56044e-07
5.14495e-08
-6.68573e-07
4.97234e-08
-6.80673e-07
4.80069e-08
-6.92348e-07
4.63041e-08
-7.03602e-07
4.46188e-08
-7.14439e-07
4.29541e-08
-7.24864e-07
4.13128e-08
-7.34884e-07
3.96971e-08
-7.44506e-07
3.8109e-08
-7.53735e-07
3.65499e-08
-7.62579e-07
3.50211e-08
-7.71045e-07
3.35232e-08
-7.79142e-07
3.20568e-08
-7.86876e-07
3.06219e-08
-7.94255e-07
2.92186e-08
-8.01286e-07
2.78463e-08
-8.07977e-07
2.65044e-08
-8.14336e-07
2.51921e-08
-8.20367e-07
2.39083e-08
-8.2608e-07
2.26515e-08
-8.31478e-07
2.14204e-08
-8.36569e-07
2.02134e-08
-8.41358e-07
1.90284e-08
-8.45849e-07
1.78637e-08
-8.50047e-07
1.6717e-08
-8.53956e-07
1.55862e-08
-8.57579e-07
1.44688e-08
-8.60918e-07
1.33625e-08
-8.63976e-07
1.22646e-08
-8.66754e-07
1.11726e-08
-8.69253e-07
1.00838e-08
-8.71472e-07
8.99528e-09
-8.73412e-07
7.90434e-09
-8.7507e-07
6.80807e-09
-8.76446e-07
5.70357e-09
-8.77536e-07
4.58791e-09
-8.78336e-07
3.45814e-09
-8.78843e-07
2.31131e-09
-8.79051e-07
1.14448e-09
-8.78955e-07
-4.52692e-11
-8.78549e-07
-1.26084e-09
-8.77826e-07
-2.50507e-09
-8.76778e-07
-3.78076e-09
-8.75396e-07
-5.09063e-09
-8.73673e-07
-6.43729e-09
-8.71598e-07
-7.82328e-09
-8.69161e-07
-9.25099e-09
-8.66352e-07
-1.07227e-08
-8.63159e-07
-1.22405e-08
-8.59571e-07
-1.38062e-08
-8.55576e-07
-1.54217e-08
-8.51162e-07
-1.70883e-08
-8.46316e-07
-1.88073e-08
-8.41025e-07
-2.05796e-08
-8.35277e-07
-2.24059e-08
-8.29058e-07
-2.42865e-08
-8.22356e-07
-2.62213e-08
-8.15158e-07
-2.82098e-08
-8.07451e-07
-3.02512e-08
-7.99223e-07
-3.23441e-08
-7.90463e-07
-3.44867e-08
-7.81159e-07
-3.66766e-08
-7.71301e-07
-3.8911e-08
-7.6088e-07
-4.11863e-08
-7.49887e-07
-4.34985e-08
-7.38315e-07
-4.58428e-08
-7.26158e-07
-4.82139e-08
-7.13412e-07
-5.06055e-08
-7.00074e-07
-5.3011e-08
-6.86143e-07
-5.54226e-08
-6.7162e-07
-5.78322e-08
-6.56509e-07
-6.02306e-08
-6.40816e-07
-6.26079e-08
-6.24548e-07
-6.49535e-08
-6.07718e-07
-6.72558e-08
-5.90339e-07
-6.95028e-08
-5.7243e-07
-7.16812e-08
-5.54009e-07
-7.37775e-08
-5.35102e-07
-7.5777e-08
-5.15736e-07
-7.76647e-08
-4.95943e-07
-7.94248e-08
-4.75759e-07
-8.10407e-08
-4.55222e-07
-8.24958e-08
-4.34377e-07
-8.37725e-08
-4.13271e-07
-8.48531e-08
-3.91956e-07
-8.57197e-08
-3.70488e-07
-8.63542e-08
-3.48928e-07
-8.67384e-08
-3.27341e-07
-8.68543e-08
-3.05794e-07
-8.66841e-08
-2.84361e-07
-8.62106e-08
-2.63117e-07
-8.54172e-08
-2.42143e-07
-8.42882e-08
-2.2152e-07
-8.2809e-08
-2.01333e-07
-8.09667e-08
-1.81671e-07
-7.87501e-08
-1.62622e-07
-7.61503e-08
-1.44276e-07
-7.31614e-08
-1.26721e-07
-6.97807e-08
-1.10046e-07
-6.601e-08
-9.43362e-08
-6.1856e-08
-7.9674e-08
-5.73322e-08
-6.61353e-08
-5.246e-08
-5.37882e-08
-4.72705e-08
-4.26913e-08
-4.18076e-08
-3.28903e-08
-3.61305e-08
-2.44153e-08
-3.03181e-08
-1.72777e-08
-2.4474e-08
-1.14669e-08
-1.87328e-08
-6.94674e-09
-1.3268e-08
-3.65234e-09
-8.30186e-09
-1.48778e-09
-4.11517e-09
-3.24328e-10
-1.06017e-09
3.92875e-10
-4.29738e-10
2.0383e-12
-1.83524e-09
2.13537e-09
-4.32109e-09
5.81581e-09
-7.97241e-09
1.06017e-08
-1.28522e-08
1.61541e-08
-1.9001e-08
2.21974e-08
-2.6438e-08
2.85096e-08
-3.51624e-08
3.49147e-08
-4.51558e-08
4.12739e-08
-5.63847e-08
4.74794e-08
-6.88026e-08
5.34484e-08
-8.23524e-08
5.91185e-08
-9.69686e-08
6.44439e-08
-1.12579e-07
6.9392e-08
-1.29108e-07
7.39414e-08
-1.46475e-07
7.80795e-08
-1.64598e-07
8.18007e-08
-1.83396e-07
8.51053e-08
-2.02785e-07
8.79981e-08
-2.22686e-07
9.04877e-08
-2.43019e-07
9.25859e-08
-2.63707e-07
9.43064e-08
-2.84675e-07
9.5665e-08
-3.05853e-07
9.66789e-08
-3.27172e-07
9.73661e-08
-3.48569e-07
9.77453e-08
-3.69983e-07
9.78358e-08
-3.91357e-07
9.76568e-08
-4.12638e-07
9.72278e-08
-4.33778e-07
9.6568e-08
-4.54731e-07
9.56962e-08
-4.75455e-07
9.46309e-08
-4.95913e-07
9.339e-08
-5.16071e-07
9.1991e-08
-5.35898e-07
9.04506e-08
-5.55366e-07
8.87847e-08
-5.74453e-07
8.70086e-08
-5.93136e-07
8.51368e-08
-6.11397e-07
8.3183e-08
-6.29221e-07
8.11602e-08
-6.46596e-07
7.90803e-08
-6.6351e-07
7.69546e-08
-6.79956e-07
7.47938e-08
-6.95928e-07
7.26073e-08
-7.11421e-07
7.04041e-08
-7.26433e-07