/*--------------------------------*- C++ -*----------------------------------*\
  =========                 |
  \\      /  F ield         | OpenFOAM: The Open Source CFD Toolbox
   \\    /   O peration     | Website:  https://openfoam.org
    \\  /    A nd           | Version:  7
     \\/     M anipulation  |
\*---------------------------------------------------------------------------*/
FoamFile
{
    version     2.0;
    format      ascii;
    class       volVectorField;
    location    "0.3125";
    object      U;
}
// * * * * * * * * * * * * * * * * * * * * * * * * * * * * * * * * * * * * * //

dimensions      [0 1 -1 0 0 0 0];

internalField   nonuniform List<vector> 
12800
(
(8.32378e-06 -8.32497e-06 0)
(3.70865e-05 -1.85371e-05 0)
(7.85392e-05 -1.97132e-05 0)
(0.000113256 -1.53553e-05 0)
(0.000130003 -8.31259e-06 0)
(0.000123892 -1.39578e-07 0)
(9.27773e-05 8.34322e-06 0)
(3.60464e-05 1.66958e-05 0)
(-4.5944e-05 2.46853e-05 0)
(-0.000152246 3.21921e-05 0)
(-0.000281561 3.91568e-05 0)
(-0.000432381 4.55542e-05 0)
(-0.000603085 5.13791e-05 0)
(-0.000791996 5.66379e-05 0)
(-0.000997422 6.13447e-05 0)
(-0.00121769 6.55182e-05 0)
(-0.00145115 6.91802e-05 0)
(-0.00169621 7.23541e-05 0)
(-0.00195134 7.50648e-05 0)
(-0.00221507 7.73375e-05 0)
(-0.002486 7.91978e-05 0)
(-0.0027628 8.06713e-05 0)
(-0.00304423 8.17832e-05 0)
(-0.00332911 8.25584e-05 0)
(-0.00361634 8.30213e-05 0)
(-0.00390489 8.31957e-05 0)
(-0.00419383 8.31046e-05 0)
(-0.00448228 8.27703e-05 0)
(-0.00476943 8.22141e-05 0)
(-0.00505455 8.14568e-05 0)
(-0.00533697 8.05179e-05 0)
(-0.00561608 7.94163e-05 0)
(-0.00589135 7.81699e-05 0)
(-0.00616229 7.67955e-05 0)
(-0.00642846 7.53091e-05 0)
(-0.00668949 7.37257e-05 0)
(-0.00694507 7.20596e-05 0)
(-0.00719489 7.03238e-05 0)
(-0.00743874 6.85307e-05 0)
(-0.00767641 6.66916e-05 0)
(-0.00790775 6.48172e-05 0)
(-0.00813263 6.29171e-05 0)
(-0.00835097 6.10003e-05 0)
(-0.00856271 5.90749e-05 0)
(-0.00876782 5.71483e-05 0)
(-0.00896628 5.52271e-05 0)
(-0.00915812 5.33173e-05 0)
(-0.00934336 5.14243e-05 0)
(-0.00952208 4.95528e-05 0)
(-0.00969432 4.77068e-05 0)
(-0.00986018 4.58899e-05 0)
(-0.0100198 4.41052e-05 0)
(-0.0101731 4.23551e-05 0)
(-0.0103205 4.06417e-05 0)
(-0.0104618 3.89666e-05 0)
(-0.0105974 3.73309e-05 0)
(-0.0107272 3.57354e-05 0)
(-0.0108515 3.41805e-05 0)
(-0.0109704 3.26664e-05 0)
(-0.011084 3.11927e-05 0)
(-0.0111924 2.9759e-05 0)
(-0.0112958 2.83644e-05 0)
(-0.0113943 2.7008e-05 0)
(-0.011488 2.56883e-05 0)
(-0.0115771 2.44039e-05 0)
(-0.0116617 2.31531e-05 0)
(-0.0117418 2.19339e-05 0)
(-0.0118176 2.07441e-05 0)
(-0.0118891 1.95816e-05 0)
(-0.0119565 1.8444e-05 0)
(-0.0120199 1.73286e-05 0)
(-0.0120793 1.62329e-05 0)
(-0.0121347 1.51539e-05 0)
(-0.0121862 1.40888e-05 0)
(-0.012234 1.30347e-05 0)
(-0.0122779 1.19884e-05 0)
(-0.012318 1.09468e-05 0)
(-0.0123543 9.90648e-06 0)
(-0.0123869 8.86426e-06 0)
(-0.0124156 7.81672e-06 0)
(-0.0124406 6.76044e-06 0)
(-0.0124617 5.69198e-06 0)
(-0.0124788 4.60783e-06 0)
(-0.012492 3.5045e-06 0)
(-0.0125012 2.37848e-06 0)
(-0.0125063 1.22628e-06 0)
(-0.0125071 4.43675e-08 0)
(-0.0125036 -1.17074e-06 0)
(-0.0124957 -2.42249e-06 0)
(-0.0124832 -3.71425e-06 0)
(-0.0124659 -5.0493e-06 0)
(-0.0124438 -6.43081e-06 0)
(-0.0124167 -7.86191e-06 0)
(-0.0123843 -9.34559e-06 0)
(-0.0123466 -1.08847e-05 0)
(-0.0123033 -1.24818e-05 0)
(-0.0122541 -1.41395e-05 0)
(-0.0121991 -1.58599e-05 0)
(-0.0121377 -1.76449e-05 0)
(-0.01207 -1.94962e-05 0)
(-0.0119956 -2.14152e-05 0)
(-0.0119144 -2.34029e-05 0)
(-0.011826 -2.54598e-05 0)
(-0.0117303 -2.75862e-05 0)
(-0.0116271 -2.97817e-05 0)
(-0.011516 -3.20456e-05 0)
(-0.011397 -3.43764e-05 0)
(-0.0112697 -3.67722e-05 0)
(-0.0111339 -3.92305e-05 0)
(-0.0109896 -4.17479e-05 0)
(-0.0108364 -4.43206e-05 0)
(-0.0106743 -4.69438e-05 0)
(-0.010503 -4.96119e-05 0)
(-0.0103224 -5.23186e-05 0)
(-0.0101325 -5.50566e-05 0)
(-0.00993321 -5.78177e-05 0)
(-0.0097244 -6.05928e-05 0)
(-0.0095061 -6.33718e-05 0)
(-0.00927833 -6.61436e-05 0)
(-0.00904116 -6.8896e-05 0)
(-0.0087947 -7.16159e-05 0)
(-0.00853909 -7.42891e-05 0)
(-0.00827456 -7.69003e-05 0)
(-0.00800135 -7.94332e-05 0)
(-0.00771979 -8.18705e-05 0)
(-0.00743024 -8.41938e-05 0)
(-0.00713317 -8.63837e-05 0)
(-0.00682906 -8.84201e-05 0)
(-0.0065185 -9.02817e-05 0)
(-0.00620214 -9.19465e-05 0)
(-0.00588071 -9.33916e-05 0)
(-0.005555 -9.45936e-05 0)
(-0.00522589 -9.55282e-05 0)
(-0.00489435 -9.61708e-05 0)
(-0.00456142 -9.6496e-05 0)
(-0.00422821 -9.64784e-05 0)
(-0.00389595 -9.6092e-05 0)
(-0.00356591 -9.53108e-05 0)
(-0.00323948 -9.41088e-05 0)
(-0.00291809 -9.24601e-05 0)
(-0.00260328 -9.03387e-05 0)
(-0.00229666 -8.77193e-05 0)
(-0.0019999 -8.45768e-05 0)
(-0.00171474 -8.08874e-05 0)
(-0.00144299 -7.66279e-05 0)
(-0.0011865 -7.17768e-05 0)
(-0.000947174 -6.63147e-05 0)
(-0.00072692 -6.02254e-05 0)
(-0.000527661 -5.34977e-05 0)
(-0.000351293 -4.61276e-05 0)
(-0.000199638 -3.81227e-05 0)
(-7.43878e-05 -2.95114e-05 0)
(2.30006e-05 -2.0358e-05 0)
(9.14537e-05 -1.07912e-05 0)
(0.000130542 -1.06151e-06 0)
(0.000140896 8.35282e-06 0)
(0.000124833 1.65489e-05 0)
(8.77151e-05 2.1794e-05 0)
(4.2039e-05 2.08659e-05 0)
(9.63131e-06 9.63508e-06 0)
(1.85537e-05 -3.70922e-05 0)
(7.03602e-05 -7.03027e-05 0)
(0.000132067 -6.7763e-05 0)
(0.000170177 -4.20941e-05 0)
(0.000163405 -3.15735e-06 0)
(0.000100319 4.27136e-05 0)
(-2.53469e-05 9.15505e-05 0)
(-0.000216332 0.000140872 0)
(-0.000472845 0.000189131 0)
(-0.000793383 0.000235368 0)
(-0.0011753 0.00027899 0)
(-0.00161521 0.000319643 0)
(-0.00210924 0.00035713 0)
(-0.00265322 0.000391361 0)
(-0.00324287 0.00042232 0)
(-0.00387381 0.000450041 0)
(-0.00454172 0.000474596 0)
(-0.00524233 0.000496082 0)
(-0.00597149 0.000514616 0)
(-0.00672521 0.000530325 0)
(-0.00749963 0.000543349 0)
(-0.00829109 0.000553829 0)
(-0.00909611 0.000561914 0)
(-0.00991142 0.000567752 0)
(-0.0107339 0.00057149 0)
(-0.0115607 0.000573276 0)
(-0.0123892 0.000573253 0)
(-0.0132167 0.000571565 0)
(-0.0140411 0.000568348 0)
(-0.0148603 0.000563736 0)
(-0.0156722 0.000557857 0)
(-0.0164752 0.000550836 0)
(-0.0172677 0.00054279 0)
(-0.0180482 0.000533832 0)
(-0.0188155 0.00052407 0)
(-0.0195686 0.000513605 0)
(-0.0203063 0.000502533 0)
(-0.021028 0.000490944 0)
(-0.0217329 0.000478921 0)
(-0.0224203 0.000466544 0)
(-0.0230898 0.000453884 0)
(-0.0237411 0.000441011 0)
(-0.0243738 0.000427985 0)
(-0.0249877 0.000414863 0)
(-0.0255828 0.000401699 0)
(-0.0261589 0.000388538 0)
(-0.026716 0.000375424 0)
(-0.0272543 0.000362394 0)
(-0.0277739 0.000349482 0)
(-0.0282749 0.000336718 0)
(-0.0287576 0.000324128 0)
(-0.0292221 0.000311733 0)
(-0.0296689 0.000299554 0)
(-0.0300981 0.000287604 0)
(-0.0305101 0.000275897 0)
(-0.0309053 0.000264442 0)
(-0.031284 0.000253246 0)
(-0.0316466 0.000242312 0)
(-0.0319934 0.000231643 0)
(-0.0323248 0.000221238 0)
(-0.0326412 0.000211094 0)
(-0.032943 0.000201208 0)
(-0.0332304 0.000191571 0)
(-0.0335039 0.000182177 0)
(-0.0337638 0.000173016 0)
(-0.0340104 0.000164076 0)
(-0.034244 0.000155345 0)
(-0.0344649 0.00014681 0)
(-0.0346734 0.000138454 0)
(-0.0348697 0.000130263 0)
(-0.035054 0.00012222 0)
(-0.0352265 0.000114305 0)
(-0.0353874 0.000106502 0)
(-0.0355369 9.87891e-05 0)
(-0.035675 9.11474e-05 0)
(-0.0358018 8.35558e-05 0)
(-0.0359174 7.59928e-05 0)
(-0.0360218 6.84364e-05 0)
(-0.0361151 6.08643e-05 0)
(-0.0361971 5.32536e-05 0)
(-0.0362677 4.55815e-05 0)
(-0.036327 3.78246e-05 0)
(-0.0363747 2.99595e-05 0)
(-0.0364107 2.19626e-05 0)
(-0.0364347 1.38103e-05 0)
(-0.0364465 5.47917e-06 0)
(-0.0364459 -3.0542e-06 0)
(-0.0364326 -1.18129e-05 0)
(-0.0364061 -2.08197e-05 0)
(-0.0363662 -3.0097e-05 0)
(-0.0363124 -3.96664e-05 0)
(-0.0362444 -4.9549e-05 0)
(-0.0361615 -5.9765e-05 0)
(-0.0360634 -7.03336e-05 0)
(-0.0359496 -8.1273e-05 0)
(-0.0358194 -9.26e-05 0)
(-0.0356724 -0.00010433 0)
(-0.0355079 -0.000116477 0)
(-0.0353254 -0.000129052 0)
(-0.0351243 -0.000142066 0)
(-0.0349038 -0.000155525 0)
(-0.0346635 -0.000169436 0)
(-0.0344026 -0.000183799 0)
(-0.0341205 -0.000198615 0)
(-0.0338166 -0.00021388 0)
(-0.0334903 -0.000229586 0)
(-0.0331409 -0.000245722 0)
(-0.032768 -0.000262272 0)
(-0.0323708 -0.000279218 0)
(-0.0319489 -0.000296534 0)
(-0.0315018 -0.000314192 0)
(-0.031029 -0.000332157 0)
(-0.0305302 -0.000350391 0)
(-0.0300051 -0.000368847 0)
(-0.0294533 -0.000387475 0)
(-0.0288748 -0.000406218 0)
(-0.0282694 -0.000425012 0)
(-0.0276371 -0.000443787 0)
(-0.026978 -0.000462466 0)
(-0.0262924 -0.000480968 0)
(-0.0255807 -0.000499201 0)
(-0.0248432 -0.000517069 0)
(-0.0240807 -0.000534469 0)
(-0.0232939 -0.000551291 0)
(-0.0224837 -0.000567418 0)
(-0.0216513 -0.000582728 0)
(-0.020798 -0.000597091 0)
(-0.0199252 -0.000610373 0)
(-0.0190347 -0.000622433 0)
(-0.0181282 -0.000633127 0)
(-0.0172078 -0.000642305 0)
(-0.016276 -0.000649814 0)
(-0.0153351 -0.000655496 0)
(-0.0143878 -0.000659192 0)
(-0.0134373 -0.000660742 0)
(-0.0124865 -0.000659983 0)
(-0.011539 -0.000656753 0)
(-0.0105983 -0.000650893 0)
(-0.00966825 -0.000642244 0)
(-0.00875293 -0.000630651 0)
(-0.00785655 -0.000615966 0)
(-0.00698356 -0.000598046 0)
(-0.00613853 -0.00057676 0)
(-0.00532623 -0.000551988 0)
(-0.00455153 -0.000523627 0)
(-0.0038194 -0.000491598 0)
(-0.00313483 -0.000455847 0)
(-0.00250284 -0.000416363 0)
(-0.00192833 -0.000373188 0)
(-0.00141601 -0.000326444 0)
(-0.00097025 -0.000276363 0)
(-0.00059487 -0.000223343 0)
(-0.000292852 -0.000168041 0)
(-6.59125e-05 -0.000111511 0)
(8.61246e-05 -5.54488e-05 0)
(0.000166229 -2.58731e-06 0)
(0.000181285 4.26725e-05 0)
(0.000143958 7.3242e-05 0)
(7.79687e-05 7.79461e-05 0)
(2.08579e-05 4.20357e-05 0)
(1.98062e-05 -7.86339e-05 0)
(6.81138e-05 -0.000132101 0)
(0.000111216 -0.000110681 0)
(0.000110414 -3.94684e-05 0)
(4.04443e-05 6.29559e-05 0)
(-0.000113552 0.000183372 0)
(-0.000360471 0.000312633 0)
(-0.000704712 0.000444531 0)
(-0.00114722 0.000574886 0)
(-0.00168644 0.000700905 0)
(-0.00231902 0.000820739 0)
(-0.00304038 0.000933192 0)
(-0.0038451 0.00103752 0)
(-0.00472719 0.00113332 0)
(-0.00568033 0.00122039 0)
(-0.00669805 0.00129873 0)
(-0.00777381 0.00136842 0)
(-0.00890115 0.00142968 0)
(-0.0100737 0.00148277 0)
(-0.0112853 0.00152798 0)
(-0.01253 0.00156567 0)
(-0.0138021 0.00159621 0)
(-0.0150961 0.00161998 0)
(-0.0164069 0.00163738 0)
(-0.0177295 0.0016488 0)
(-0.0190596 0.00165465 0)
(-0.0203926 0.00165532 0)
(-0.0217248 0.00165121 0)
(-0.0230524 0.00164269 0)
(-0.0243721 0.00163015 0)
(-0.0256808 0.00161394 0)
(-0.0269755 0.0015944 0)
(-0.0282539 0.00157188 0)
(-0.0295136 0.0015467 0)
(-0.0307525 0.00151915 0)
(-0.0319689 0.00148954 0)
(-0.0331612 0.00145812 0)
(-0.0343279 0.00142516 0)
(-0.0354679 0.00139091 0)
(-0.0365803 0.00135558 0)
(-0.0376642 0.00131939 0)
(-0.0387189 0.00128253 0)
(-0.0397439 0.00124519 0)
(-0.040739 0.00120752 0)
(-0.0417038 0.00116968 0)
(-0.0426382 0.00113181 0)
(-0.0435422 0.00109402 0)
(-0.044416 0.00105644 0)
(-0.0452596 0.00101917 0)
(-0.0460734 0.000982275 0)
(-0.0468576 0.000945851 0)
(-0.0476126 0.000909957 0)
(-0.0483389 0.000874651 0)
(-0.0490368 0.000839979 0)
(-0.049707 0.000805977 0)
(-0.0503498 0.000772676 0)
(-0.050966 0.000740096 0)
(-0.051556 0.00070825 0)
(-0.0521205 0.000677146 0)
(-0.0526599 0.000646783 0)
(-0.0531749 0.000617155 0)
(-0.0536661 0.00058825 0)
(-0.054134 0.000560052 0)
(-0.0545791 0.000532537 0)
(-0.055002 0.00050568 0)
(-0.0554032 0.000479449 0)
(-0.0557832 0.000453809 0)
(-0.0561424 0.000428721 0)
(-0.0564812 0.000404143 0)
(-0.0568001 0.00038003 0)
(-0.0570993 0.000356333 0)
(-0.0573792 0.000333001 0)
(-0.05764 0.000309981 0)
(-0.057882 0.000287218 0)
(-0.0581053 0.000264654 0)
(-0.0583101 0.000242229 0)
(-0.0584965 0.000219882 0)
(-0.0586645 0.00019755 0)
(-0.058814 0.00017517 0)
(-0.0589451 0.000152677 0)
(-0.0590575 0.000130005 0)
(-0.0591511 0.000107087 0)
(-0.0592258 8.38571e-05 0)
(-0.0592812 6.0248e-05 0)
(-0.0593169 3.61924e-05 0)
(-0.0593327 1.16236e-05 0)
(-0.059328 -1.35248e-05 0)
(-0.0593024 -3.93182e-05 0)
(-0.0592554 -6.58211e-05 0)
(-0.0591863 -9.30964e-05 0)
(-0.0590945 -0.000121206 0)
(-0.0589793 -0.000150208 0)
(-0.0588401 -0.00018016 0)
(-0.058676 -0.000211115 0)
(-0.0584862 -0.000243125 0)
(-0.0582698 -0.000276235 0)
(-0.058026 -0.000310489 0)
(-0.0577539 -0.000345923 0)
(-0.0574525 -0.000382569 0)
(-0.0571208 -0.000420454 0)
(-0.0567579 -0.000459597 0)
(-0.0563628 -0.00050001 0)
(-0.0559345 -0.000541698 0)
(-0.0554719 -0.000584655 0)
(-0.0549742 -0.000628868 0)
(-0.0544403 -0.000674314 0)
(-0.0538693 -0.000720956 0)
(-0.0532603 -0.000768749 0)
(-0.0526124 -0.000817633 0)
(-0.0519248 -0.000867538 0)
(-0.0511968 -0.000918376 0)
(-0.0504277 -0.000970047 0)
(-0.0496169 -0.00102244 0)
(-0.048764 -0.00107541 0)
(-0.0478685 -0.00112882 0)
(-0.0469303 -0.0011825 0)
(-0.0459492 -0.00123627 0)
(-0.0449254 -0.00128993 0)
(-0.043859 -0.00134325 0)
(-0.0427504 -0.00139599 0)
(-0.0416002 -0.00144791 0)
(-0.0404093 -0.00149872 0)
(-0.0391788 -0.00154813 0)
(-0.0379098 -0.00159582 0)
(-0.036604 -0.00164146 0)
(-0.0352631 -0.0016847 0)
(-0.0338893 -0.00172519 0)
(-0.0324849 -0.00176252 0)
(-0.0310527 -0.00179632 0)
(-0.0295957 -0.00182617 0)
(-0.0281171 -0.00185164 0)
(-0.0266207 -0.00187232 0)
(-0.0251105 -0.00188776 0)
(-0.0235908 -0.00189751 0)
(-0.0220662 -0.00190114 0)
(-0.0205419 -0.00189819 0)
(-0.0190232 -0.00188822 0)
(-0.0175158 -0.0018708 0)
(-0.0160257 -0.00184549 0)
(-0.0145593 -0.00181189 0)
(-0.0131231 -0.00176961 0)
(-0.0117241 -0.00171829 0)
(-0.0103694 -0.00165759 0)
(-0.00906634 -0.00158724 0)
(-0.00782233 -0.00150701 0)
(-0.00664495 -0.00141677 0)
(-0.00554175 -0.00131646 0)
(-0.00452018 -0.00120618 0)
(-0.00358745 -0.0010862 0)
(-0.00275037 -0.000957044 0)
(-0.00201507 -0.000819566 0)
(-0.00138673 -0.000675122 0)
(-0.000869122 -0.000525769 0)
(-0.000464039 -0.000374598 0)
(-0.00017048 -0.000226221 0)
(1.6386e-05 -8.75141e-05 0)
(0.000106401 3.13433e-05 0)
(0.000116085 0.000115529 0)
(7.35407e-05 0.000143996 0)
(2.18443e-05 8.7751e-05 0)
(1.55803e-05 -0.000113671 0)
(4.29252e-05 -0.000170679 0)
(4.08987e-05 -0.000110084 0)
(-2.81156e-05 2.97169e-05 0)
(-0.000189817 0.000221185 0)
(-0.000460394 0.000443881 0)
(-0.000849922 0.000682938 0)
(-0.00136363 0.000927764 0)
(-0.00200289 0.00117089 0)
(-0.00276611 0.00140708 0)
(-0.00364951 0.00163274 0)
(-0.00464767 0.00184542 0)
(-0.00575405 0.00204352 0)
(-0.00696128 0.00222609 0)
(-0.0082615 0.00239259 0)
(-0.00964653 0.00254286 0)
(-0.0111081 0.00267698 0)
(-0.0126378 0.00279521 0)
(-0.0142276 0.00289796 0)
(-0.0158693 0.00298577 0)
(-0.0175552 0.00305923 0)
(-0.0192779 0.00311899 0)
(-0.0210301 0.00316576 0)
(-0.022805 0.00320026 0)
(-0.0245962 0.00322323 0)
(-0.0263976 0.00323542 0)
(-0.0282035 0.00323757 0)
(-0.0300087 0.00323042 0)
(-0.0318081 0.00321469 0)
(-0.0335972 0.0031911 0)
(-0.0353719 0.00316034 0)
(-0.0371284 0.00312307 0)
(-0.0388632 0.00307994 0)
(-0.0405731 0.00303156 0)
(-0.0422556 0.00297853 0)
(-0.0439079 0.00292139 0)
(-0.045528 0.00286068 0)
(-0.047114 0.00279691 0)
(-0.0486642 0.00273053 0)
(-0.0501773 0.00266199 0)
(-0.0516522 0.00259171 0)
(-0.0530878 0.00252006 0)
(-0.0544836 0.00244739 0)
(-0.0558389 0.00237403 0)
(-0.0571534 0.00230027 0)
(-0.058427 0.00222639 0)
(-0.0596595 0.00215263 0)
(-0.060851 0.00207921 0)
(-0.0620018 0.00200632 0)
(-0.0631121 0.00193414 0)
(-0.0641824 0.00186283 0)
(-0.065213 0.0017925 0)
(-0.0662047 0.00172328 0)
(-0.0671578 0.00165525 0)
(-0.0680732 0.0015885 0)
(-0.0689514 0.00152308 0)
(-0.0697933 0.00145903 0)
(-0.0705995 0.00139638 0)
(-0.0713709 0.00133515 0)
(-0.0721081 0.00127534 0)
(-0.072812 0.00121695 0)
(-0.0734832 0.00115994 0)
(-0.0741226 0.00110428 0)
(-0.0747308 0.00104994 0)
(-0.0753086 0.000996869 0)
(-0.0758567 0.000944999 0)
(-0.0763756 0.000894267 0)
(-0.0768659 0.000844599 0)
(-0.0773283 0.000795913 0)
(-0.0777632 0.000748121 0)
(-0.0781711 0.000701131 0)
(-0.0785524 0.000654843 0)
(-0.0789074 0.000609156 0)
(-0.0792365 0.00056396 0)
(-0.0795398 0.000519145 0)
(-0.0798177 0.000474595 0)
(-0.08007 0.000430191 0)
(-0.080297 0.000385814 0)
(-0.0804986 0.000341338 0)
(-0.0806746 0.000296638 0)
(-0.080825 0.000251586 0)
(-0.0809495 0.000206055 0)
(-0.0810477 0.000159915 0)
(-0.0811194 0.000113036 0)
(-0.0811641 6.52881e-05 0)
(-0.0811812 1.65429e-05 0)
(-0.0811702 -3.3328e-05 0)
(-0.0811305 -8.44508e-05 0)
(-0.0810612 -0.00013695 0)
(-0.0809617 -0.000190946 0)
(-0.080831 -0.000246556 0)
(-0.0806682 -0.000303896 0)
(-0.0804725 -0.000363072 0)
(-0.0802427 -0.000424189 0)
(-0.0799777 -0.000487341 0)
(-0.0796765 -0.000552617 0)
(-0.0793378 -0.000620098 0)
(-0.0789604 -0.000689854 0)
(-0.0785432 -0.000761943 0)
(-0.0780847 -0.000836415 0)
(-0.0775837 -0.000913303 0)
(-0.0770389 -0.000992628 0)
(-0.076449 -0.0010744 0)
(-0.0758127 -0.00115859 0)
(-0.0751286 -0.00124519 0)
(-0.0743956 -0.00133414 0)
(-0.0736123 -0.00142536 0)
(-0.0727776 -0.00151877 0)
(-0.0718903 -0.00161425 0)
(-0.0709495 -0.00171164 0)
(-0.0699541 -0.0018108 0)
(-0.0689033 -0.0019115 0)
(-0.0677964 -0.00201353 0)
(-0.0666327 -0.00211663 0)
(-0.0654119 -0.0022205 0)
(-0.0641336 -0.00232482 0)
(-0.0627978 -0.00242923 0)
(-0.0614045 -0.00253334 0)
(-0.0599543 -0.00263672 0)
(-0.0584475 -0.0027389 0)
(-0.0568852 -0.00283939 0)
(-0.0552684 -0.00293765 0)
(-0.0535987 -0.0030331 0)
(-0.0518777 -0.00312514 0)
(-0.0501077 -0.00321313 0)
(-0.048291 -0.00329639 0)
(-0.0464306 -0.00337422 0)
(-0.0445296 -0.00344588 0)
(-0.0425918 -0.00351062 0)
(-0.0406211 -0.00356765 0)
(-0.0386221 -0.00361616 0)
(-0.0365997 -0.00365533 0)
(-0.0345592 -0.00368433 0)
(-0.0325065 -0.00370232 0)
(-0.0304478 -0.00370844 0)
(-0.0283898 -0.00370186 0)
(-0.0263397 -0.00368175 0)
(-0.0243049 -0.00364728 0)
(-0.0222935 -0.00359768 0)
(-0.0203138 -0.00353218 0)
(-0.0183745 -0.00345008 0)
(-0.0164847 -0.00335075 0)
(-0.0146536 -0.00323361 0)
(-0.0128907 -0.00309822 0)
(-0.0112056 -0.00294422 0)
(-0.00960819 -0.00277147 0)
(-0.00810793 -0.00258 0)
(-0.00671426 -0.00237015 0)
(-0.00543619 -0.00214261 0)
(-0.00428209 -0.00189856 0)
(-0.0032594 -0.00163987 0)
(-0.00237422 -0.00136929 0)
(-0.00163083 -0.00109087 0)
(-0.00103104 -0.000810393 0)
(-0.000573374 -0.000536147 0)
(-0.000252039 -0.000279881 0)
(-5.58574e-05 -5.81581e-05 0)
(3.31878e-05 0.00010612 0)
(4.35653e-05 0.000181852 0)
(1.67348e-05 0.000125136 0)
(8.69563e-06 -0.000131048 0)
(4.49222e-06 -0.000164819 0)
(-6.07424e-05 -4.07051e-05 0)
(-0.000218724 0.00019125 0)
(-0.000492956 0.000495197 0)
(-0.000899419 0.000843887 0)
(-0.00144818 0.00121686 0)
(-0.00214449 0.00159905 0)
(-0.00298966 0.00197945 0)
(-0.00398192 0.0023501 0)
(-0.00511704 0.00270535 0)
(-0.00638894 0.00304121 0)
(-0.00779018 0.003355 0)
(-0.00931231 0.00364499 0)
(-0.0109462 0.00391018 0)
(-0.0126824 0.00415011 0)
(-0.0145111 0.00436478 0)
(-0.0164224 0.00455447 0)
(-0.0184067 0.00471973 0)
(-0.0204542 0.00486129 0)
(-0.0225558 0.00498003 0)
(-0.0247024 0.00507694 0)
(-0.0268852 0.00515306 0)
(-0.029096 0.00520952 0)
(-0.031327 0.00524745 0)
(-0.0335708 0.00526802 0)
(-0.0358203 0.0052724 0)
(-0.0380691 0.00526175 0)
(-0.0403111 0.00523722 0)
(-0.0425407 0.00519993 0)
(-0.0447528 0.00515099 0)
(-0.0469427 0.00509146 0)
(-0.049106 0.00502237 0)
(-0.0512389 0.0049447 0)
(-0.053338 0.00485941 0)
(-0.0554 0.00476739 0)
(-0.0574224 0.00466949 0)
(-0.0594028 0.00456653 0)
(-0.061339 0.00445927 0)
(-0.0632293 0.00434842 0)
(-0.0650724 0.00423464 0)
(-0.0668669 0.00411855 0)
(-0.068612 0.00400073 0)
(-0.070307 0.0038817 0)
(-0.0719515 0.00376195 0)
(-0.073545 0.00364192 0)
(-0.0750876 0.00352201 0)
(-0.0765792 0.00340257 0)
(-0.0780202 0.00328393 0)
(-0.0794108 0.00316638 0)
(-0.0807514 0.00305016 0)
(-0.0820427 0.00293549 0)
(-0.0832853 0.00282256 0)
(-0.0844799 0.00271152 0)
(-0.0856273 0.00260249 0)
(-0.0867283 0.00249557 0)
(-0.0877838 0.00239084 0)
(-0.0887947 0.00228835 0)
(-0.0897619 0.00218812 0)
(-0.0906864 0.00209017 0)
(-0.091569 0.00199446 0)
(-0.0924106 0.00190099 0)
(-0.0932123 0.00180968 0)
(-0.0939749 0.00172049 0)
(-0.0946991 0.00163332 0)
(-0.0953859 0.00154809 0)
(-0.096036 0.00146469 0)
(-0.0966502 0.00138299 0)
(-0.0972291 0.00130287 0)
(-0.0977733 0.00122418 0)
(-0.0982835 0.00114678 0)
(-0.0987601 0.00107052 0)
(-0.0992035 0.000995208 0)
(-0.0996141 0.000920688 0)
(-0.0999922 0.000846776 0)
(-0.100338 0.000773286 0)
(-0.100652 0.000700028 0)
(-0.100933 0.000626805 0)
(-0.101183 0.000553417 0)
(-0.1014 0.000479663 0)
(-0.101584 0.000405336 0)
(-0.101736 0.00033023 0)
(-0.101855 0.000254135 0)
(-0.10194 0.000176842 0)
(-0.101991 9.81441e-05 0)
(-0.102008 1.78323e-05 0)
(-0.101988 -6.42991e-05 0)
(-0.101933 -0.000148453 0)
(-0.10184 -0.000234829 0)
(-0.101709 -0.000323621 0)
(-0.101539 -0.000415017 0)
(-0.101329 -0.0005092 0)
(-0.101077 -0.000606343 0)
(-0.100783 -0.000706608 0)
(-0.100444 -0.00081015 0)
(-0.10006 -0.000917108 0)
(-0.0996288 -0.00102761 0)
(-0.0991493 -0.00114176 0)
(-0.0986199 -0.00125966 0)
(-0.0980389 -0.00138137 0)
(-0.0974049 -0.00150696 0)
(-0.0967162 -0.00163645 0)
(-0.0959713 -0.00176984 0)
(-0.0951685 -0.00190712 0)
(-0.0943063 -0.00204821 0)
(-0.0933831 -0.00219305 0)
(-0.0923974 -0.00234151 0)
(-0.0913479 -0.00249343 0)
(-0.0902331 -0.00264862 0)
(-0.0890519 -0.00280685 0)
(-0.0878031 -0.00296782 0)
(-0.0864856 -0.00313122 0)
(-0.0850986 -0.00329667 0)
(-0.0836414 -0.00346375 0)
(-0.0821136 -0.00363199 0)
(-0.0805148 -0.00380085 0)
(-0.0788449 -0.00396976 0)
(-0.0771043 -0.00413808 0)
(-0.0752933 -0.0043051 0)
(-0.0734127 -0.00447009 0)
(-0.0714638 -0.00463223 0)
(-0.0694478 -0.00479065 0)
(-0.0673668 -0.00494444 0)
(-0.0652229 -0.0050926 0)
(-0.0630187 -0.00523413 0)
(-0.0607573 -0.00536792 0)
(-0.0584424 -0.00549285 0)
(-0.0560779 -0.00560774 0)
(-0.0536682 -0.00571138 0)
(-0.0512186 -0.0058025 0)
(-0.0487343 -0.00587984 0)
(-0.0462217 -0.00594206 0)
(-0.0436871 -0.00598786 0)
(-0.0411377 -0.00601589 0)
(-0.0385813 -0.00602482 0)
(-0.0360259 -0.00601332 0)
(-0.0334803 -0.00598009 0)
(-0.0309537 -0.00592385 0)
(-0.0284557 -0.0058434 0)
(-0.0259965 -0.00573756 0)
(-0.0235865 -0.00560529 0)
(-0.0212366 -0.00544563 0)
(-0.018958 -0.00525775 0)
(-0.0167621 -0.00504104 0)
(-0.0146602 -0.00479509 0)
(-0.0126639 -0.00451976 0)
(-0.0107846 -0.00421531 0)
(-0.00903304 -0.00388243 0)
(-0.00741985 -0.00352243 0)
(-0.0059546 -0.00313739 0)
(-0.00464572 -0.00273046 0)
(-0.00350009 -0.00230614 0)
(-0.00252246 -0.00187079 0)
(-0.00171487 -0.00143327 0)
(-0.00107584 -0.00100577 0)
(-0.000599552 -0.000605051 0)
(-0.000274826 -0.000253874 0)
(-8.38812e-05 1.72858e-05 0)
(-8.49618e-07 0.000168111 0)
(8.73936e-06 0.000141872 0)
(6.67551e-07 -0.000125849 0)
(-4.1061e-05 -0.000102894 0)
(-0.000181032 0.000112731 0)
(-0.000441994 0.000461977 0)
(-0.000843349 0.00090188 0)
(-0.00139967 0.00139911 0)
(-0.00212005 0.00192806 0)
(-0.00300902 0.00246934 0)
(-0.00406738 0.00300844 0)
(-0.00529283 0.00353459 0)
(-0.0066806 0.0040399 0)
(-0.00822394 0.00451871 0)
(-0.00991463 0.00496705 0)
(-0.0117433 0.0053823 0)
(-0.0136998 0.00576284 0)
(-0.0157735 0.00610785 0)
(-0.0179534 0.00641713 0)
(-0.0202283 0.00669094 0)
(-0.0225873 0.00692994 0)
(-0.0250194 0.00713507 0)
(-0.027514 0.00730748 0)
(-0.0300606 0.00744849 0)
(-0.0326493 0.00755957 0)
(-0.0352705 0.00764224 0)
(-0.0379152 0.0076981 0)
(-0.0405747 0.0077288 0)
(-0.043241 0.00773599 0)
(-0.0459064 0.00772132 0)
(-0.0485639 0.00768642 0)
(-0.051207 0.00763291 0)
(-0.0538295 0.00756237 0)
(-0.0564261 0.00747632 0)
(-0.0589915 0.00737626 0)
(-0.0615214 0.0072636 0)
(-0.0640115 0.00713973 0)
(-0.0664582 0.00700594 0)
(-0.0688582 0.00686347 0)
(-0.0712089 0.00671351 0)
(-0.0735076 0.00655715 0)
(-0.0757523 0.00639544 0)
(-0.0779413 0.00622935 0)
(-0.0800732 0.00605978 0)
(-0.0821467 0.00588758 0)
(-0.0841612 0.00571351 0)
(-0.0861159 0.00553828 0)
(-0.0880104 0.00536255 0)
(-0.0898448 0.00518689 0)
(-0.0916189 0.00501185 0)
(-0.0933329 0.00483788 0)
(-0.0949874 0.00466542 0)
(-0.0965827 0.00449484 0)
(-0.0981195 0.00432644 0)
(-0.0995985 0.00416051 0)
(-0.101021 0.00399728 0)
(-0.102387 0.00383693 0)
(-0.103698 0.00367962 0)
(-0.104954 0.00352545 0)
(-0.106158 0.0033745 0)
(-0.10731 0.00322681 0)
(-0.108411 0.0030824 0)
(-0.109462 0.00294124 0)
(-0.110464 0.0028033 0)
(-0.111418 0.0026685 0)
(-0.112326 0.00253675 0)
(-0.113188 0.00240794 0)
(-0.114005 0.00228193 0)
(-0.114779 0.00215856 0)
(-0.115509 0.00203767 0)
(-0.116197 0.00191906 0)
(-0.116844 0.00180253 0)
(-0.11745 0.00168787 0)
(-0.118016 0.00157484 0)
(-0.118541 0.0014632 0)
(-0.119028 0.0013527 0)
(-0.119476 0.00124307 0)
(-0.119884 0.00113406 0)
(-0.120255 0.00102537 0)
(-0.120586 0.000916727 0)
(-0.120879 0.00080784 0)
(-0.121134 0.000698412 0)
(-0.121349 0.000588146 0)
(-0.121525 0.00047674 0)
(-0.121662 0.000363891 0)
(-0.121758 0.000249296 0)
(-0.121813 0.000132651 0)
(-0.121827 1.36564e-05 0)
(-0.121798 -0.000107987 0)
(-0.121725 -0.000232574 0)
(-0.121608 -0.000360391 0)
(-0.121446 -0.000491721 0)
(-0.121237 -0.000626836 0)
(-0.120979 -0.000765996 0)
(-0.120673 -0.000909453 0)
(-0.120315 -0.00105744 0)
(-0.119904 -0.00121018 0)
(-0.11944 -0.00136787 0)
(-0.118919 -0.00153069 0)
(-0.118341 -0.0016988 0)
(-0.117704 -0.00187232 0)
(-0.117006 -0.00205137 0)
(-0.116244 -0.002236 0)
(-0.115418 -0.00242627 0)
(-0.114525 -0.00262216 0)
(-0.113564 -0.00282364 0)
(-0.112532 -0.00303063 0)
(-0.111428 -0.00324299 0)
(-0.110251 -0.00346055 0)
(-0.108998 -0.00368306 0)
(-0.107668 -0.00391024 0)
(-0.106259 -0.00414174 0)
(-0.104771 -0.00437715 0)
(-0.103202 -0.00461599 0)
(-0.101552 -0.0048577 0)
(-0.0998182 -0.00510166 0)
(-0.0980017 -0.00534719 0)
(-0.0961019 -0.00559351 0)
(-0.0941186 -0.00583977 0)
(-0.0920521 -0.00608504 0)
(-0.0899032 -0.0063283 0)
(-0.0876726 -0.00656846 0)
(-0.0853619 -0.00680434 0)
(-0.0829727 -0.00703469 0)
(-0.0805073 -0.00725816 0)
(-0.0779682 -0.00747333 0)
(-0.0753587 -0.00767872 0)
(-0.0726824 -0.00787275 0)
(-0.0699434 -0.00805378 0)
(-0.0671465 -0.00822012 0)
(-0.064297 -0.00837001 0)
(-0.0614008 -0.00850164 0)
(-0.0584642 -0.00861317 0)
(-0.0554945 -0.00870271 0)
(-0.0524992 -0.00876837 0)
(-0.0494867 -0.00880823 0)
(-0.046466 -0.00882039 0)
(-0.0434463 -0.00880296 0)
(-0.040438 -0.00875411 0)
(-0.0374515 -0.00867204 0)
(-0.0344981 -0.00855506 0)
(-0.0315895 -0.00840156 0)
(-0.0287375 -0.00821009 0)
(-0.0259549 -0.00797936 0)
(-0.0232542 -0.00770833 0)
(-0.0206484 -0.0073962 0)
(-0.0181505 -0.00704253 0)
(-0.0157736 -0.00664732 0)
(-0.0135302 -0.00621108 0)
(-0.0114328 -0.00573503 0)
(-0.00949304 -0.00522123 0)
(-0.00772148 -0.00467286 0)
(-0.0061275 -0.00409452 0)
(-0.00471872 -0.00349268 0)
(-0.00350051 -0.00287619 0)
(-0.00247542 -0.00225708 0)
(-0.00164257 -0.00165147 0)
(-0.000996916 -0.00108089 0)
(-0.000528345 -0.000573808 0)
(-0.000220677 -0.000167393 0)
(-5.27527e-05 9.02613e-05 0)
(-4.34127e-07 0.000132712 0)
(-7.72366e-06 -9.57848e-05 0)
(-8.99882e-05 2.18395e-05 0)
(-0.000311403 0.000359956 0)
(-0.000684123 0.000853175 0)
(-0.00122221 0.00145287 0)
(-0.00193793 0.0021206 0)
(-0.00283861 0.00282618 0)
(-0.00392745 0.00354633 0)
(-0.00520422 0.00426319 0)
(-0.00666583 0.00496323 0)
(-0.00830674 0.00563635 0)
(-0.0101195 0.00627511 0)
(-0.012095 0.00687419 0)
(-0.0142231 0.00742997 0)
(-0.0164927 0.00794014 0)
(-0.0188921 0.00840341 0)
(-0.0214094 0.00881934 0)
(-0.0240323 0.00918813 0)
(-0.0267487 0.00951051 0)
(-0.0295464 0.00978759 0)
(-0.0324136 0.0100208 0)
(-0.0353389 0.0102119 0)
(-0.0383111 0.0103626 0)
(-0.0413196 0.010475 0)
(-0.0443541 0.0105513 0)
(-0.047405 0.0105934 0)
(-0.0504632 0.0106037 0)
(-0.0535202 0.0105843 0)
(-0.056568 0.0105374 0)
(-0.0595992 0.0104652 0)
(-0.0626069 0.0103697 0)
(-0.0655849 0.0102531 0)
(-0.0685276 0.0101173 0)
(-0.0714296 0.00996424 0)
(-0.0742863 0.00979583 0)
(-0.0770935 0.00961379 0)
(-0.0798476 0.00941983 0)
(-0.0825453 0.00921552 0)
(-0.0851838 0.00900237 0)
(-0.0877607 0.00878181 0)
(-0.090274 0.00855516 0)
(-0.092722 0.00832364 0)
(-0.0951034 0.0080884 0)
(-0.0974173 0.00785051 0)
(-0.0996628 0.00761092 0)
(-0.10184 0.00737053 0)
(-0.103948 0.00713014 0)
(-0.105986 0.00689048 0)
(-0.107957 0.0066522 0)
(-0.109859 0.00641588 0)
(-0.111693 0.00618203 0)
(-0.11346 0.00595109 0)
(-0.115161 0.00572343 0)
(-0.116796 0.00549938 0)
(-0.118367 0.00527919 0)
(-0.119875 0.00506308 0)
(-0.12132 0.00485119 0)
(-0.122705 0.00464365 0)
(-0.12403 0.0044405 0)
(-0.125296 0.00424178 0)
(-0.126504 0.00404745 0)
(-0.127657 0.00385747 0)
(-0.128755 0.00367174 0)
(-0.129798 0.00349014 0)
(-0.130789 0.00331251 0)
(-0.131728 0.00313867 0)
(-0.132617 0.00296841 0)
(-0.133456 0.0028015 0)
(-0.134246 0.00263768 0)
(-0.134988 0.00247669 0)
(-0.135683 0.00231821 0)
(-0.136332 0.00216195 0)
(-0.136934 0.00200757 0)
(-0.137491 0.00185473 0)
(-0.138003 0.00170308 0)
(-0.13847 0.00155224 0)
(-0.138892 0.00140185 0)
(-0.139269 0.00125151 0)
(-0.139602 0.00110083 0)
(-0.13989 0.000949409 0)
(-0.140133 0.000796843 0)
(-0.14033 0.000642723 0)
(-0.140481 0.000486637 0)
(-0.140586 0.000328174 0)
(-0.140643 0.000166923 0)
(-0.140653 2.4759e-06 0)
(-0.140613 -0.000165572 0)
(-0.140523 -0.000337617 0)
(-0.140381 -0.000514052 0)
(-0.140187 -0.000695254 0)
(-0.139939 -0.000881592 0)
(-0.139636 -0.00107342 0)
(-0.139275 -0.00127107 0)
(-0.138856 -0.00147486 0)
(-0.138376 -0.00168509 0)
(-0.137834 -0.00190203 0)
(-0.137228 -0.0021259 0)
(-0.136556 -0.00235693 0)
(-0.135816 -0.00259528 0)
(-0.135005 -0.00284109 0)
(-0.134123 -0.00309446 0)
(-0.133166 -0.00335541 0)
(-0.132133 -0.00362396 0)
(-0.131021 -0.00390003 0)
(-0.129829 -0.0041835 0)
(-0.128555 -0.0044742 0)
(-0.127196 -0.00477187 0)
(-0.125752 -0.00507619 0)
(-0.124219 -0.00538675 0)
(-0.122597 -0.00570307 0)
(-0.120884 -0.00602459 0)
(-0.119079 -0.00635064 0)
(-0.117181 -0.00668048 0)
(-0.115189 -0.00701326 0)
(-0.113103 -0.00734802 0)
(-0.110921 -0.00768371 0)
(-0.108645 -0.00801918 0)
(-0.106274 -0.00835315 0)
(-0.103809 -0.00868425 0)
(-0.101252 -0.009011 0)
(-0.0986035 -0.00933178 0)
(-0.0958662 -0.00964489 0)
(-0.0930423 -0.00994852 0)
(-0.090135 -0.0102407 0)
(-0.0871477 -0.0105195 0)
(-0.0840848 -0.0107828 0)
(-0.0809507 -0.0110283 0)
(-0.077751 -0.0112537 0)
(-0.0744917 -0.0114567 0)
(-0.0711793 -0.0116348 0)
(-0.0678212 -0.0117857 0)