/*--------------------------------*- C++ -*----------------------------------*\
  =========                 |
  \\      /  F ield         | OpenFOAM: The Open Source CFD Toolbox
   \\    /   O peration     | Website:  https://openfoam.org
    \\  /    A nd           | Version:  7
     \\/     M anipulation  |
\*---------------------------------------------------------------------------*/
FoamFile
{
    version     2.0;
    format      ascii;
    class       volScalarField;
    location    "0.3875";
    object      p;
}
// * * * * * * * * * * * * * * * * * * * * * * * * * * * * * * * * * * * * * //

dimensions      [0 2 -2 0 0 0 0];

internalField   nonuniform List<scalar> 
12800
(
-2.76653e-08
3.00144e-05
8.08464e-07
-0.000101299
-0.000269309
-0.000493021
-0.000761701
-0.00106486
-0.00139302
-0.00173785
-0.0020923
-0.00245021
-0.00280652
-0.00315702
-0.00349824
-0.00382742
-0.00414237
-0.00444139
-0.00472323
-0.00498702
-0.00523217
-0.00545838
-0.00566556
-0.00585376
-0.00602319
-0.00617415
-0.00630702
-0.00642223
-0.00652023
-0.00660151
-0.00666655
-0.00671578
-0.00674964
-0.00676853
-0.00677279
-0.00676276
-0.0067387
-0.00670083
-0.0066493
-0.00658422
-0.00650565
-0.00641359
-0.00630798
-0.00618872
-0.00605565
-0.00590855
-0.00574716
-0.00557116
-0.00538019
-0.00517383
-0.00495162
-0.00471303
-0.00445751
-0.00418446
-0.00389322
-0.00358307
-0.00325326
-0.00290299
-0.00253141
-0.0021376
-0.00172061
-0.00127943
-0.000813018
-0.000320252
0.000200027
0.000749035
0.00132804
0.00193836
0.00258138
0.00325852
0.00397127
0.00472116
0.00550976
0.00633871
0.00720967
0.00812437
0.00908455
0.010092
0.0111486
0.0122561
0.0134164
0.0146314
0.015903
0.017233
0.0186233
0.0200757
0.021592
0.0231739
0.024823
0.026541
0.0283292
0.0301892
0.0321219
0.0341286
0.03621
0.0383668
0.0405994
0.0429079
0.0452922
0.0477518
0.050286
0.0528935
0.0555727
0.0583217
0.061138
0.0640186
0.0669601
0.0699584
0.0730091
0.0761071
0.0792466
0.0824214
0.0856248
0.0888491
0.0920866
0.0953285
0.0985659
0.101789
0.104988
0.108153
0.111272
0.114335
0.11733
0.120246
0.123072
0.125796
0.128407
0.130896
0.13325
0.135461
0.13752
0.139418
0.141148
0.142703
0.14408
0.145273
0.146281
0.147103
0.147738
0.14819
0.148463
0.14856
0.148491
0.148263
0.147888
0.147377
0.146745
0.146008
0.145184
0.144292
0.143354
0.142396
0.141443
0.140525
0.139677
0.138934
0.138336
0.137924
0.137738
0.137766
-2.4094e-05
5.76693e-06
-2.58274e-05
-0.000120069
-0.000268284
-0.000463642
-0.000698515
-0.000964836
-0.00125486
-0.0015616
-0.00187883
-0.00220111
-0.00252377
-0.00284284
-0.00315502
-0.00345759
-0.00374835
-0.00402554
-0.00428784
-0.00453423
-0.00476401
-0.00497671
-0.00517209
-0.00535004
-0.00551061
-0.00565398
-0.00578035
-0.00589001
-0.0059833
-0.00606055
-0.00612213
-0.00616838
-0.00619964
-0.00621621
-0.00621836
-0.00620633
-0.00618034
-0.00614053
-0.00608701
-0.00601984
-0.00593905
-0.00584459
-0.00573638
-0.0056143
-0.00547815
-0.0053277
-0.00516268
-0.00498276
-0.00478757
-0.00457669
-0.00434965
-0.00410593
-0.00384497
-0.00356618
-0.0032689
-0.00295244
-0.00261605
-0.00225895
-0.00188028
-0.00147917
-0.00105469
-0.000605841
-0.000131609
0.000369091
0.000897386
0.00145445
0.00204152
0.00265988
0.00331084
0.0039958
0.00471617
0.00547343
0.00626909
0.00710471
0.0079819
0.00890229
0.00986755
0.0108794
0.0119395
0.0130497
0.0142118
0.0154274
0.0166984
0.0180265
0.0194134
0.0208609
0.0223706
0.023944
0.0255828
0.0272883
0.0290619
0.0309048
0.0328181
0.0348026
0.0368591
0.0389882
0.04119
0.0434646
0.0458118
0.0482309
0.0507212
0.0532814
0.0559098
0.0586044
0.0613626
0.0641816
0.0670579
0.0699876
0.0729662
0.0759888
0.0790499
0.0821433
0.0852624
0.0884002
0.0915489
0.0947002
0.0978457
0.100976
0.104082
0.107153
0.110179
0.11315
0.116055
0.118883
0.121624
0.124268
0.126803
0.12922
0.131509
0.133661
0.135668
0.137522
0.139216
0.140746
0.142106
0.143293
0.144304
0.145141
0.145802
0.146291
0.146612
0.146769
0.14677
0.146624
0.14634
0.145932
0.145411
0.144795
0.144098
0.143341
0.142543
0.141727
0.140917
0.140139
0.139423
0.138797
0.138291
0.137935
0.137765
0.137793
1.36905e-05
4.40642e-05
1.10972e-05
-7.92881e-05
-0.000216561
-0.000394991
-0.000608516
-0.000850477
-0.00111439
-0.00139423
-0.00168453
-0.00198044
-0.00227769
-0.00257264
-0.00286216
-0.00314365
-0.00341497
-0.00367438
-0.00392053
-0.00415235
-0.00436908
-0.00457016
-0.00475523
-0.0049241
-0.00507671
-0.00521313
-0.00533345
-0.00543787
-0.00552662
-0.00559994
-0.0056581
-0.00570138
-0.00573
-0.00574422
-0.00574423
-0.00573024
-0.00570236
-0.00566072
-0.00560538
-0.00553636
-0.00545363
-0.00535714
-0.00524678
-0.0051224
-0.00498378
-0.00483068
-0.00466281
-0.00447983
-0.00428137
-0.00406699
-0.00383624
-0.00358859
-0.00332349
-0.00304034
-0.00273849
-0.00241725
-0.00207591
-0.00171367
-0.00132972
-0.000923174
-0.000493132
-3.86331e-05
0.00044133
0.000947811
0.0014819
0.00204476
0.00263756
0.00326156
0.00391804
0.00460835
0.00533385
0.00609597
0.00689616
0.00773593
0.00861682
0.00954041
0.0105083
0.0115221
0.0125835
0.0136942
0.0148558
0.01607
0.0173385
0.018663
0.0200452
0.0214865
0.0229886
0.0245529
0.0261809
0.0278739
0.0296332
0.0314599
0.0333549
0.035319
0.0373529
0.039457
0.0416316
0.0438765
0.0461914
0.0485757
0.0510286
0.0535486
0.0561342
0.0587833
0.0614933
0.0642615
0.0670844
0.0699581
0.0728784
0.0758402
0.0788384
0.0818668
0.0849192
0.0879887
0.0910676
0.0941482
0.0972221
0.10028
0.103314
0.106313
0.109268
0.11217
0.115006
0.117769
0.120446
0.123029
0.125507
0.127872
0.130112
0.132222
0.134191
0.136014
0.137683
0.139194
0.140543
0.141727
0.142743
0.143591
0.144273
0.144791
0.145149
0.145351
0.145406
0.145321
0.145106
0.144773
0.144335
0.143807
0.143203
0.142543
0.141844
0.141128
0.140416
0.139732
0.139099
0.138544
0.138091
0.137762
0.137594
0.137608
0.000124145
0.000144802
0.000105482
1.37002e-05
-0.000119919
-0.000290026
-0.000491286
-0.000717953
-0.000964444
-0.00122549
-0.00149629
-0.0017725
-0.00205029
-0.00232631
-0.00259769
-0.00286199
-0.00311718
-0.00336159
-0.00359389
-0.00381304
-0.00401824
-0.00420888
-0.00438456
-0.00454503
-0.00469018
-0.00481996
-0.00493443
-0.0050337
-0.00511792
-0.00518728
-0.00524196
-0.00528215
-0.00530804
-0.00531982
-0.00531764
-0.00530162
-0.00527187
-0.00522844
-0.00517136
-0.00510061
-0.00501615
-0.00491789
-0.00480569
-0.00467937
-0.00453872
-0.00438347
-0.00421332
-0.00402791
-0.00382688
-0.00360977
-0.00337614
-0.00312545
-0.00285716
-0.00257066
-0.00226533
-0.00194048
-0.0015954
-0.00122931
-0.000841405
-0.000430837
3.2886e-06
0.00046191
0.000946012
0.00145662
0.0019948
0.00256167
0.00315839
0.00378617
0.00444626
0.00513996
0.00586859
0.00663353
0.0074362
0.00827804
0.00916054
0.0100852
0.0110536
0.0120673
0.0131279
0.014237
0.0153962
0.0166072
0.0178714
0.0191906
0.0205662
0.0219999
0.023493
0.0250471
0.0266634
0.0283432
0.0300877
0.0318979
0.0337747
0.0357189
0.037731
0.0398114
0.0419603
0.0441776
0.0464628
0.0488155
0.0512345
0.0537187
0.0562663
0.0588754
0.0615435
0.0642677
0.0670447
0.0698708
0.0727417
0.0756525
0.0785982
0.0815729
0.0845704
0.087584
0.0906064
0.09363
0.0966465
0.0996476
0.102624
0.105567
0.108467
0.111314
0.114098
0.11681
0.11944
0.121977
0.124413
0.126738
0.128943
0.131021
0.132963
0.134763
0.136416
0.137915
0.139257
0.14044
0.141461
0.142321
0.14302
0.143561
0.143947
0.144185
0.144281
0.144242
0.14408
0.143804
0.143427
0.142964
0.142428
0.141838
0.141209
0.140561
0.139914
0.139289
0.138706
0.138188
0.137756
0.13743
0.137238
0.137201
0.000300227
0.000299601
0.000246946
0.000148576
1.3308e-05
-0.000153895
-0.000348265
-0.000564835
-0.000798765
-0.00104551
-0.00130085
-0.00156096
-0.00182242
-0.00208222
-0.00233775
-0.00258677
-0.00282741
-0.00305809
-0.00327755
-0.00348479
-0.003679
-0.00385959
-0.00402614
-0.00417835
-0.00431606
-0.00443917
-0.00454769
-0.00464167
-0.0047212
-0.0047864
-0.0048374
-0.00487434
-0.00489734
-0.00490653
-0.00490202
-0.00488389
-0.00485219
-0.00480694
-0.00474812
-0.0046757
-0.00458958
-0.00448966
-0.00437578
-0.00424774
-0.00410529
-0.00394816
-0.00377603
-0.00358856
-0.00338535
-0.00316595
-0.00292991
-0.0026767
-0.00240577
-0.00211653
-0.00180835
-0.00148057
-0.00113247
-0.00076329
-0.00037225
4.14893e-05
0.000478801
0.000940603
0.00142785
0.00194155
0.00248274
0.00305249
0.00365195
0.00428229
0.00494471
0.00564047
0.00637086
0.00713722
0.0079409
0.00878331
0.00966588
0.0105901
0.0115574
0.0125693
0.0136275
0.0147333
0.0158884
0.0170943
0.0183525
0.0196646
0.0210321
0.0224564
0.023939
0.0254812
0.0270842
0.0287493
0.0304777
0.0322702
0.0341277
0.0360509
0.0380404
0.0400965
0.0422192
0.0444086
0.0466642
0.0489854
0.0513713
0.0538205
0.0563314
0.0589021
0.0615301
0.0642127
0.0669466
0.0697281
0.0725531
0.075417
0.0783147
0.0812406
0.0841885
0.087152
0.0901241
0.0930972
0.0960634
0.0990145
0.101942
0.104836
0.107689
0.11049
0.11323
0.1159
0.118489
0.120989
0.12339
0.125684
0.127861
0.129914
0.131836
0.13362
0.13526
0.136751
0.13809
0.139274
0.140301
0.141171
0.141886
0.142448
0.142861
0.143129
0.14326
0.143261
0.143142
0.142913
0.142586
0.142175
0.141694
0.141157
0.140582
0.139986
0.139385
0.138799
0.138247
0.137746
0.137315
0.136972
0.136735
0.136614
0.000533636
0.000502626
0.000430317
0.00032036
0.000178553
9.36594e-06
-0.000182912
-0.000394009
-0.000619785
-0.00085631
-0.00109993
-0.00134731
-0.00159544
-0.00184164
-0.00208359
-0.00231927
-0.00254698
-0.00276529
-0.00297302
-0.00316923
-0.00335316
-0.00352423
-0.00368202
-0.00382623
-0.00395666
-0.0040732
-0.0041758
-0.00426446
-0.00433924
-0.00440021
-0.00444745
-0.00448103
-0.00450105
-0.00450759
-0.0045007
-0.00448042
-0.00444676
-0.00439971
-0.00433921
-0.00426519
-0.00417754
-0.00407612
-0.00396075
-0.0038312
-0.00368721
-0.00352851
-0.00335476
-0.00316559
-0.00296062
-0.00273939
-0.00250144
-0.00224624
-0.00197326
-0.00168189
-0.00137153
-0.00104152
-0.000691142
-0.00031967
7.36748e-05
0.000489707
0.000929282
0.0013933
0.00188268
0.00239841
0.00294149
0.00351298
0.00411397
0.0047456
0.00540906
0.00610554
0.0068363
0.00760262
0.00840583
0.00924728
0.0101284
0.0110505
0.0120151
0.0130236
0.0140775
0.0151784
0.0163276
0.0175267
0.0187772
0.0200806
0.0214382
0.0228515
0.0243219
0.0258506
0.0274388
0.0290879
0.0307987
0.0325722
0.0344093
0.0363106
0.0382766
0.0403077
0.042404
0.0445653
0.0467912
0.0490813
0.0514345
0.0538496
0.056325
0.0588588
0.0614486
0.0640918
0.0667853
0.0695254
0.0723081
0.0751289
0.077983
0.0808647
0.0837683
0.0866874
0.0896151
0.0925442
0.0954669
0.0983751
0.101261
0.104114
0.106927
0.109691
0.112395
0.11503
0.117588
0.120059
0.122433
0.124703
0.126859
0.128894
0.130802
0.132574
0.134207
0.135694
0.137033
0.13822
0.139255
0.140137
0.140867
0.141448
0.141884
0.142178
0.142339
0.142373
0.142289
0.142098
0.141812
0.141442
0.141002
0.140506
0.139969
0.139408
0.138837
0.138274
0.137735
0.137234
0.136789
0.136413
0.136112
0.135887
0.000815045
0.00074717
0.000650061
0.000524074
0.000371313
0.000195754
1.24955e-06
-0.000208583
-0.000430225
-0.000660318
-0.00089573
-0.00113358
-0.00137126
-0.00160644
-0.00183708
-0.00206138
-0.00227786
-0.00248523
-0.00268244
-0.00286861
-0.00304307
-0.00320527
-0.00335482
-0.00349141
-0.00361485
-0.00372501
-0.00382182
-0.00390526
-0.00397535
-0.00403211
-0.00407557
-0.0041058
-0.00412284
-0.00412672
-0.00411746
-0.00409505
-0.00405949
-0.0040107
-0.00394862
-0.00387313
-0.0037841
-0.00368137
-0.00356473
-0.00343394
-0.00328872
-0.00312878
-0.00295377
-0.00276332
-0.00255702
-0.00233445
-0.00209511
-0.00183849
-0.00156406
-0.00127122
-0.000959363
-0.000627843
-0.000275969
9.698e-05
0.000491764
0.000909181
0.00135007
0.00181529
0.00230576
0.00282242
0.00336625
0.00393828
0.00453957
0.00517121
0.00583436
0.00653018
0.00725987
0.00802469
0.00882592
0.00966485
0.0105428
0.0114612
0.0124214
0.0134248
0.0144729
0.015567
0.0167087
0.0178993
0.0191403
0.0204331
0.0217791
0.0231797
0.0246362
0.0261498
0.0277218
0.0293532
0.0310451
0.0327985
0.034614
0.0364924
0.0384342
0.0404397
0.042509
0.0446419
0.0468383
0.0490975
0.0514186
0.0538005
0.0562415
0.05874
0.0612936
0.0638997
0.0665553
0.069257
0.0720009
0.0747825
0.0775971
0.0804395
0.0833039
0.086184
0.0890733
0.0919646
0.0948504
0.0977228
0.100574
0.103394
0.106176
0.108909
0.111585
0.114195
0.116729
0.119178
0.121533
0.123786
0.125929
0.127953
0.129853
0.13162
0.13325
0.134738
0.13608
0.137274
0.138319
0.139213
0.139958
0.140557
0.141012
0.14133
0.141515
0.141576
0.141521
0.14136
0.141104
0.140764
0.140354
0.139886
0.139375
0.138835
0.13828
0.137725
0.137183
0.136668
0.136194
0.135773
0.135398
0.135056
0.00113509
0.00102585
0.000899957
0.000754228
0.000586768
0.000401101
0.000200667
-1.15115e-05
-0.0002325
-0.000459467
-0.000689762
-0.000920935
-0.00115077
-0.00137726
-0.00159866
-0.00181344
-0.0020203
-0.00221812
-0.00240597
-0.00258311
-0.00274893
-0.00290296
-0.00304482
-0.00317425
-0.00329106
-0.00339512
-0.00348636
-0.00356473
-0.00363024
-0.00368288
-0.00372265
-0.00374959
-0.0037637
-0.00376497
-0.0037534
-0.00372896
-0.00369157
-0.00364117
-0.00357763
-0.00350083
-0.00341062
-0.00330679
-0.00318912
-0.00305736
-0.00291122
-0.00275038
-0.00257448
-0.00238316
-0.002176
-0.00195256
-0.00171235
-0.00145488
-0.00117959
-0.000885911
-0.000573241
-0.000240939
0.000111669
0.000485288
0.000880661
0.00129857
0.00173982
0.00220527
0.00269579
0.0032123
0.00375575
0.00432714
0.00492749
0.00555787
0.00621938
0.00691316
0.00764037
0.00840222
0.00919994
0.0100348
0.0109081
0.0118211
0.0127753
0.0137718
0.0148123
0.0158979
0.0170302
0.0182105
0.0194403
0.0207208
0.0220535
0.0234396
0.0248805
0.0263774
0.0279315
0.0295438
0.0312154
0.0329472
0.03474
0.0365944
0.0385109
0.04049
0.0425317
0.044636
0.0468026
0.049031
0.0513204
0.0536696
0.0560772
0.0585415
0.0610604
0.0636313
0.0662514
0.0689173
0.0716252
0.0743711
0.0771501
0.0799573
0.082787
0.0856332
0.0884893
0.0913486
0.0942035
0.0970464
0.0998692
0.102663
0.10542
0.108131
0.110787
0.113378
0.115896
0.118331
0.120675
0.122919
0.125055
0.127075
0.128972
0.13074
0.132372
0.133866
0.135215
0.136419
0.137475
0.138383
0.139144
0.13976
0.140234
0.140572
0.140779
0.140862
0.14083
0.140691
0.140458
0.14014
0.139749
0.139299
0.138802
0.138271
0.137719
0.137159
0.136603
0.136062
0.135549
0.135073
0.134616
0.134155
0.00148505
0.00133141
0.00117373
0.00100529
0.000820059
0.000621147
0.000411666
0.000194069
-2.92511e-05
-0.000255952
-0.000483825
-0.000710842
-0.000935146
-0.00115507
-0.00136915
-0.00157611
-0.00177485
-0.00196443
-0.00214409
-0.00231318
-0.00247121
-0.00261777
-0.00275255
-0.00287531
-0.00298591
-0.00308421
-0.00317015
-0.0032437
-0.00330481
-0.00335349
-0.00338971
-0.00341348
-0.00342476
-0.00342355
-0.00340979
-0.00338342
-0.00334435
-0.00329248
-0.00322766
-0.00314974
-0.00305855
-0.00295386
-0.00283543
-0.00270299
-0.00255623
-0.00239484
-0.00221844
-0.00202666
-0.00181908
-0.00159525
-0.00135469
-0.00109691
-0.000821359
-0.000527473
-0.000214655
0.000117721
0.000470313
0.00084381
0.00123894
0.00165645
0.00209715
0.00256185
0.0030514
0.00356669
0.00410865
0.00467823
0.00527643
0.00590428
0.00656285
0.00725323
0.00797655
0.00873397
0.00952668
0.0103559
0.0112229
0.012129
0.0130754
0.0140634
0.0150945
0.0161699
0.0172911
0.0184593
0.019676
0.0209424
0.0222599
0.0236298
0.0250534
0.0265319
0.0280663
0.029658
0.0313077
0.0330165
0.0347851
0.0366143
0.0385046
0.0404563
0.0424696
0.0445447
0.0466811
0.0488786
0.0511362
0.0534531
0.0558279
0.058259
0.0607443
0.0632815
0.0658679
0.0685002
0.0711748
0.0738878
0.0766345
0.0794101
0.0822092
0.0850258
0.0878536
0.0906859
0.0935155
0.0963346
0.0991355
0.10191
0.104649
0.107344
0.109985
0.112565
0.115074
0.117502
0.119841
0.122083
0.124219
0.126241
0.128142
0.129917
0.131557
0.133061
0.134422
0.135639
0.136709
0.137633
0.13841
0.139044
0.139536
0.139893
0.140118
0.14022
0.140206
0.140085
0.139868
0.139564
0.139185
0.138744
0.138251
0.137719
0.13716
0.136585
0.136005
0.135429
0.134869
0.134333
0.133791
0.13321
0.00185695
0.00165692
0.00146528
0.00127181
0.00106634
0.000851605
0.000630468
0.000404849
0.000176645
-5.22511e-05
-0.000280061
-0.000505141
-0.000725985
-0.000941247
-0.00114975
-0.00135046
-0.00154249
-0.0017251
-0.00189767
-0.0020597
-0.00221079
-0.00235061
-0.00247894
-0.00259558
-0.00270042
-0.00279336
-0.00287435
-0.00294335
-0.00300032
-0.00304525
-0.00307812
-0.00309889
-0.00310753
-0.00310399
-0.0030882
-0.00306007
-0.00301949
-0.00296633
-0.00290043
-0.00282161
-0.00272967
-0.00262437
-0.00250546
-0.00237264
-0.00222561
-0.00206401
-0.00188749
-0.00169566
-0.0014881
-0.00126437
-0.00102397
-0.000766423
-0.000491188
-0.000197707
0.000114606
0.000446363
0.000798204
0.0011708
0.00156487
0.00198113
0.00242036
0.00288335
0.00337093
0.00388395
0.00442332
0.00498994
0.0055848
0.00620887
0.00686319
0.00754882
0.00826684
0.00901838
0.00980459
0.0106267
0.0114858
0.0123832
0.0133202
0.014298
0.015318
0.0163814
0.0174896
0.0186439
0.0198457
0.0210962
0.0223967
0.0237486
0.025153
0.0266113
0.0281244
0.0296936
0.0313199
0.0330041
0.0347472
0.0365498
0.0384125
0.0403358
0.0423199
0.0443649
0.0464706
0.0486367
0.0508625
0.0531472
0.0554895
0.0578879
0.0603406
0.0628453
0.0653994
0.0679999
0.0706433
0.0733258
0.0760431
0.0787903
0.0815623
0.0843532
0.087157
0.0899669
0.0927759
0.0955766
0.098361
0.101121
0.103848
0.106533
0.109168
0.111743
0.114249
0.116677
0.119019
0.121265
0.123407
0.125438
0.127349
0.129135
0.13079
0.132308
0.133685
0.134919
0.136007
0.136949
0.137745
0.138397
0.138908
0.139282
0.139525
0.139643
0.139644
0.139536
0.13933
0.139034
0.138661
0.13822
0.137724
0.137183
0.136609
0.136011
0.1354
0.134782
0.134169
0.133569
0.132941
0.132242
0.00224359
0.00199593
0.0017688
0.00154851
0.00132082
0.00108819
0.000853234
0.000617412
0.000382165
0.000148954
-8.0836e-05
-0.00030592
-0.000525134
-0.000737449
-0.000941956
-0.00113786
-0.00132451
-0.00150133
-0.00166788
-0.00182379
-0.00196877
-0.00210261
-0.00222513
-0.00233622
-0.00243581
-0.00252383
-0.00260025
-0.00266504
-0.00271817
-0.00275963
-0.00278938
-0.00280739
-0.0028136
-0.00280794
-0.00279033
-0.00276065
-0.00271876
-0.00266453
-0.00259777
-0.00251829
-0.00242585
-0.00232022
-0.00220111
-0.00206822
-0.00192124
-0.0017598
-0.00158355
-0.00139208
-0.00118498
-0.000961797
-0.000722063
-0.00046528
-0.000190924
0.000101554
0.000412725
0.000743185
0.00109356
0.0014645
0.0018567
0.00227087
0.00270775
0.0031681
0.00365273
0.00416245
0.00469814
0.00526069
0.00585101
0.00647007
0.00711886
0.0077984
0.00850974
0.00925396
0.0100322
0.0108455
0.0116952
0.0125824
0.0135083
0.0144741
0.0154813
0.0165309
0.0176243
0.0187629
0.0199479
0.0211806
0.0224623
0.0237943
0.0251777
0.0266139
0.028104
0.029649
0.0312501
0.0329082
0.0346241
0.0363987
0.0382325
0.0401262
0.0420799
0.0440939
0.0461681
0.0483022
0.0504958
0.052748
0.0550579
0.0574239
0.0598445
0.0623175
0.0648405
0.0674106
0.0700246
0.0726787
0.0753689
0.0780905
0.0808384
0.083607
0.0863904
0.089182
0.0919749
0.0947618
0.0975348
0.100286
0.103007
0.105688
0.108321
0.110898
0.113408
0.115842
0.118192
0.120449
0.122604
0.12465
0.126578
0.128382
0.130055
0.131593
0.132992
0.134246
0.135356
0.136319
0.137136
0.137809
0.138339
0.138731
0.13899
0.139123
0.139136
0.139039
0.138839
0.138547
0.138174
0.137729
0.137223
0.136667
0.13607
0.135444
0.134794
0.13413
0.133461
0.132794
0.13208
0.131269
0.00263838
0.00234239
0.0020787
0.00183027
0.00157883
0.00132662
0.00107609
0.000828272
0.000584159
0.00034483
0.00011131
-0.000115468
-0.000334672
-0.000545562
-0.000747491
-0.000939916
-0.00112239
-0.00129454
-0.00145608
-0.00160678
-0.00174649
-0.00187507
-0.00199246
-0.0020986
-0.00219346
-0.00227703
-0.0023493
-0.00241026
-0.0024599
-0.0024982
-0.00252513
-0.00254064
-0.00254468
-0.00253715
-0.00251795
-0.00248694
-0.002444
-0.00238894
-0.00232157
-0.00224168
-0.00214902
-0.00204332
-0.00192431
-0.00179167
-0.00164507
-0.00148415
-0.00130853
-0.00111783
-0.000911611
-0.00068944
-0.000450849
-0.000195345
7.75871e-05
0.000368481
0.000677895
0.00100641
0.00135462
0.00172318
0.00211275
0.00252401
0.00295767
0.00341448
0.00389519
0.00440062
0.00493158
0.00548894
0.00607357
0.00668642
0.00732842
0.00800055
0.00870384
0.00943933
0.0102081
0.0110112
0.0118498
0.0127251
0.0136383
0.0145905
0.015583
0.0166171
0.017694
0.0188149
0.0199813
0.0211943
0.0224553
0.0237654
0.025126
0.0265383
0.0280034
0.0295224
0.0310966
0.0327268
0.0344139
0.0361589
0.0379624
0.039825
0.0417471
0.043729
0.0457707
0.0478721
0.0500328
0.0522522
0.0545294
0.0568631
0.0592518
0.0616936
0.0641863
0.0667271
0.0693129
0.0719404
0.0746054
0.0773036
0.08003
0.0827793
0.0855455
0.0883224
0.0911032
0.0938804
0.0966466
0.0993936
0.102113
0.104796
0.107434
0.110017
0.112537
0.114984
0.117349
0.119622
0.121797
0.123863
0.125814
0.127641
0.12934
0.130903
0.132327
0.133608
0.134744
0.135732
0.136573
0.137268
0.137819
0.138231
0.138507
0.138653
0.138678
0.138588
0.138393
0.138101
0.137724
0.137269
0.136749
0.136172
0.135549
0.134888
0.134197
0.133483
0.132755
0.132021
0.131222
0.130303
0.00303528
0.00269061
0.00238967
0.00211214
0.00183578
0.00156268
0.00129518
0.00103387
0.000779377
0.000532421
0.000293676
6.37381e-05
-0.000156864
-0.000367668
-0.000568294
-0.000758435
-0.000937851
-0.00110636
-0.00126385
-0.00141023
-0.00154545
-0.00166952
-0.00178243
-0.00188422
-0.00197491
-0.00205452
-0.00212309
-0.00218064
-0.00222717
-0.00226266
-0.00228709
-0.00230042
-0.00230256
-0.00229344
-0.00227291
-0.00224085
-0.0021971
-0.00214147
-0.00207376
-0.00199372
-0.00190111
-0.00179565
-0.00167704
-0.00154495
-0.00139906
-0.001239
-0.00106439
-0.000874833
-0.000669913
-0.00044919
-0.000212204
4.15302e-05
0.000312516
0.000601273
0.000908339
0.00123428
0.00157968
0.00194516
0.00233134
0.00273891
0.00316853
0.00362091
0.0040968
0.00459695
0.00512217
0.00567326
0.00625109
0.00685653
0.00749051
0.00815396
0.00884787
0.00957322
0.0103311
0.0111225
0.0119485
0.0128103
0.0137091
0.0146459
0.0156221
0.0166388
0.0176973
0.0187989
0.0199447
0.0211362
0.0223745
0.0236609
0.0249967
0.0263831
0.0278214
0.0293126
0.0308579
0.0324585
0.0341151
0.0358288
0.0376004
0.0394305
0.0413196
0.0432681
0.0452762
0.0473438
0.0494709
0.0516568
0.0539008
0.0562019
0.0585588
0.0609696
0.0634323
0.0659445
0.0685032
0.0711052
0.0737466
0.0764232
0.0791303
0.0818627
0.0846146
0.0873799
0.0901518
0.0929233
0.0956866
0.0984339
0.101157
0.103846
0.106493
0.109089
0.111625
0.11409
0.116475
0.118772
0.120972
0.123065
0.125044
0.126902
0.128631
0.130226
0.131681
0.132993
0.134158
0.135176
0.136044
0.136765
0.13734
0.137772
0.138066
0.138228
0.138263
0.13818
0.137987
0.137694
0.137309
0.136842
0.136304
0.135703
0.135049
0.13435
0.133614
0.132847
0.132059
0.131258
0.130377
0.129355
0.00342873
0.00303528
0.00269668
0.00238936
0.00208721
0.00179222
0.0015066
0.00123061
0.000964506
0.000708659
0.000463419
0.000229071
5.85312e-06
-0.000206048
-0.000406505
-0.000595438
-0.000772815
-0.000938645
-0.00109297
-0.00123585
-0.00136737
-0.00148763
-0.00159673
-0.00169477
-0.00178184
-0.00185801
-0.00192336
-0.00197793
-0.00202175
-0.00205481
-0.0020771
-0.00208857
-0.00208913
-0.0020787
-0.00205714
-0.00202431
-0.00198003
-0.0019241
-0.00185631
-0.00177641
-0.00168412
-0.00157917
-0.00146125
-0.00133003
-0.00118516
-0.00102629
-0.000853038
-0.000665
-0.000461768
-0.000242906
-7.96075e-06
0.000243541
0.000512087
0.000798182
0.00110235
0.00142512
0.00176708
0.00212881
0.00251092
0.00291404
0.00333882
0.00378595
0.00425612
0.00475008
0.00526856
0.00581236
0.00638229
0.0069792
0.00760396
0.00825747
0.00894068
0.00965455
0.0104001
0.0111783
0.0119902
0.012837
0.0137197
0.0146396
0.0155977
0.0165953
0.0176336
0.0187138
0.0198373
0.0210053
0.022219
0.0234798
0.0247889
0.0261476
0.027557
0.0290185
0.0305332
0.0321022
0.0337265
0.0354072
0.0371452
0.0389411
0.0407957
0.0427094
0.0446826
0.0467154
0.0488078
0.0509593
0.0531695
0.0554375
0.0577621
0.0601419
0.0625748
0.0650587
0.0675909
0.0701683
0.0727873
0.0754438
0.0781333
0.0808508
0.0835907
0.086347
0.0891131
0.091882
0.0946462
0.0973976
0.100128
0.102828
0.10549
0.108104
0.11066
0.113148
0.11556
0.117886
0.120117
0.122244
0.124258
0.126151
0.127917
0.129548
0.131041
0.132389
0.133589
0.13464
0.135541
0.136291
0.136893
0.137348
0.137662
0.137839
0.137886
0.13781
0.13762
0.137323
0.136929
0.136447
0.135888
0.13526
0.134572
0.133833
0.13305
0.132229
0.13138
0.130512
0.129552
0.128432
0.00381353
0.00337137
0.00299488
0.00265733
0.00232877
0.00201111
0.00170651
0.00141489
0.00113617
0.000870386
0.000617589
0.000377769
0.000150882
-6.31476e-05
-0.000264434
-0.000453121
-0.000629383
-0.000793408
-0.000945399
-0.00108556
-0.00121412
-0.00133127
-0.00143719
-0.00153208
-0.00161609
-0.00168934
-0.00175195
-0.00180399
-0.00184552
-0.00187654
-0.00189705
-0.001907
-0.00190632
-0.00189489
-0.0018726
-0.00183928
-0.00179475
-0.0017388
-0.0016712
-0.0015917
-0.00150001
-0.00139585
-0.0012789
-0.00114883
-0.0010053
-0.000847931
-0.000676356
-0.000490181
-0.000288998
-7.23803e-05
0.00016012
0.00040896
0.000674609
0.000957555
0.0012583
0.00157737
0.0019153
0.00227266
0.00265002
0.00304799
0.00346719
0.00390827
0.0043719
0.00485876
0.00536957
0.00590509
0.00646608
0.00705336
0.00766775
0.00831013
0.00898138
0.00968245
0.0104143
0.0111779
0.0119742
0.0128044
0.0136695
0.0145707
0.015509
0.0164858
0.0175021
0.0185593
0.0196586
0.0208012
0.0219885
0.0232217
0.0245021
0.025831
0.0272098
0.0286396
0.0301217
0.0316573
0.0332475
0.0348934
0.0365959
0.038356
0.0401745
0.0420519
0.0439888
0.0459854
0.0480418
0.050158
0.0523335
0.0545676
0.0568595
0.0592077
0.0616107
0.0640664
0.0665723
0.0691256
0.0717229
0.0743603
0.0770336
0.0797378
0.0824676
0.0852172
0.08798
0.0907492
0.0935173
0.0962764
0.0990181
0.101734
0.104414
0.10705
0.109632
0.11215
0.114594
0.116954
0.119222
0.121388
0.123442
0.125378
0.127186
0.128861
0.130396
0.131786
0.133027
0.134117
0.135054
0.135838
0.13647
0.136952
0.137288
0.137484
0.137543
0.137475
0.137286
0.136986
0.136582
0.136084
0.135503
0.134846
0.134123
0.133342
0.132511
0.131635
0.130725
0.129791
0.128754
0.12754
0.00418477
0.00369412
0.00327969
0.00291161
0.00255621
0.00221532
0.00189107
0.00158308
0.00129093
0.00101437
0.000753135
0.000506949
0.000275496
5.84472e-05
-0.000144544
-0.000333843
-0.000509818
-0.000672838
-0.000823264
-0.000961449
-0.00108773
-0.00120242
-0.0013058
-0.00139812
-0.00147961
-0.00155046
-0.00161082
-0.00166078
-0.00170044
-0.00172983
-0.00174893
-0.00175772
-0.00175611
-0.00174401
-0.00172129
-0.00168776
-0.00164326
-0.00158756
-0.00152042
-0.00144157
-0.00135074
-0.00124763
-0.00113191
-0.00100327
-0.000861333
-0.000705755
-0.000536159
-0.000352157
-0.000153351
6.06802e-05
0.000290368
0.000536155
0.000798493
0.00107785
0.0013747
0.00168956
0.00202292
0.00237534
0.00274734
0.00313952
0.00355245
0.00398674
0.00444303
0.00492196
0.00542422
0.00595052
0.00650159
0.00707819
0.00768112
0.0083112
0.00896929
0.00965628
0.0103731
0.0111207
0.0119
0.0127121
0.0135581
0.014439
0.0153559
0.0163101
0.0173028
0.0183351
0.0194083
0.0205237
0.0216827
0.0228864
0.0241362
0.0254335
0.0267796
0.0281758
0.0296234
0.0311236
0.0326778
0.034287
0.0359523
0.0376749
0.0394555
0.041295
0.043194
0.045153
0.0471722
0.0492517
0.0513913
0.0535907
0.055849
0.0581651
0.0605377
0.062965
0.0654446
0.067974
0.07055
0.073169
0.0758269
0.078519
0.0812403
0.0839848
0.0867464
0.0895183
0.0922931
0.0950629
0.0978195
0.100554
0.103257
0.10592
0.108532
0.111084
0.113565
0.115966
0.118276
0.120487
0.122589
0.124572
0.126429
0.128153
0.129737
0.131175
0.132463
0.133597
0.134576
0.135398
0.136065
0.136577
0.136939
0.137155
0.13723
0.137171
0.136985
0.136681
0.136268
0.135754
0.135149
0.134463
0.133704
0.13288
0.131999
0.131068
0.130098
0.129099
0.127987
0.126683
0.00453781
0.00399896
0.00354664
0.0031479
0.00276537
0.00240087
0.0020565
0.00173156
0.00142535
0.00113731
0.000866928
0.000613632
0.000376855
0.000156026
-4.94352e-05
-0.000240102
-0.000416532
-0.000579271
-0.000728837
-0.000865722
-0.000990381
-0.00110323
-0.00120465
-0.00129497
-0.00137449
-0.00144344
-0.00150201
-0.00155036
-0.00158857
-0.00161671
-0.00163478
-0.00164275
-0.00164055
-0.00162809
-0.00160522
-0.00157177
-0.00152756
-0.00147236
-0.00140592
-0.00132797
-0.00123823
-0.0011364
-0.00102216
-0.000895163
-0.000755077
-0.000601537
-0.000434178
-0.000252621
-5.64723e-05
0.000154672
0.000381229
0.00062362
0.00088228
0.00115765
0.0014502
0.0017604
0.00208872
0.00243567
0.00280176
0.00318754
0.00359356
0.00402039
0.00446861
0.00493885
0.00543174
0.00594794
0.00648816
0.0070531
0.00764353
0.00826023
0.00890401
0.00957572
0.0102762
0.0110065
0.0117674
0.01256
0.0133853
0.0142444
0.0151384
0.0160684
0.0170357
0.0180414
0.0190868
0.0201732
0.0213019
0.0224743
0.0236917
0.0249554
0.0262669
0.0276275
0.0290387
0.0305017
0.0320178
0.0335885
0.0352148
0.036898
0.038639
0.0404388
0.0422983
0.0442181
0.0461986
0.0482401
0.0503426
0.052506
0.0547298
0.0570129
0.0593544
0.0617527
0.0642056
0.066711
0.0692658
0.0718667
0.0745098
0.0771907
0.0799044
0.0826453
0.0854074
0.088184
0.0909678
0.093751
0.0965253
0.099282
0.102012
0.104705
0.107352
0.109942
0.112466
0.114912
0.117271
0.119533
0.121687
0.123725
0.125637
0.127416
0.129055
0.130547
0.131887
0.133072
0.134098
0.134964
0.13567
0.136218
0.13661
0.13685
0.136943
0.136895
0.136714
0.136408
0.135986
0.135456
0.134829
0.134112
0.133316
0.132449
0.13152
0.130533
0.129503
0.128441
0.127255
0.125865
0.00486823
0.00428152
0.00379145
0.003362
0.00295221
0.00256384
0.002199
0.0018567
0.00153593
0.00123589
0.000955772
0.000694758
0.000452027
0.000226766
1.81742e-05
-0.000174521
-0.000352065
-0.000515173
-0.000664518
-0.000800723
-0.00092436
-0.00103595
-0.00113598
-0.00122484
-0.00130289
-0.00137042
-0.00142767
-0.00147482
-0.001512
-0.00153927
-0.00155666
-0.00156415
-0.00156168
-0.00154915
-0.00152641
-0.0014933
-0.00144962
-0.00139515
-0.00132963
-0.00125279
-0.00116435
-0.001064
-0.000951421
-0.000826282
-0.00068824
-0.000536946
-0.000372037
-0.000193144
1.13625e-07
0.000208125
0.000431283
0.000669993
0.000924668
0.00119573
0.00148361
0.00178876
0.00211161
0.00245265
0.00281235
0.0031912
0.00358974
0.00400849
0.00444799
0.00490883
0.00539158
0.00589689
0.0064254
0.00697778