/*--------------------------------*- C++ -*----------------------------------*\
  =========                 |
  \\      /  F ield         | OpenFOAM: The Open Source CFD Toolbox
   \\    /   O peration     | Website:  https://openfoam.org
    \\  /    A nd           | Version:  7
     \\/     M anipulation  |
\*---------------------------------------------------------------------------*/
FoamFile
{
    version     2.0;
    format      ascii;
    class       surfaceScalarField;
    location    "0.3875";
    object      phi;
}
// * * * * * * * * * * * * * * * * * * * * * * * * * * * * * * * * * * * * * //

dimensions      [0 3 -1 0 0 0 0];

internalField   nonuniform List<scalar> 
25360
(
5.18712e-11
-5.18402e-11
1.92717e-10
-1.4084e-10
3.59881e-10
-1.67167e-10
5.05442e-10
-1.45556e-10
6.01284e-10
-9.58485e-11
6.31447e-10
-3.01562e-11
5.8771e-10
4.37358e-11
4.66895e-10
1.20815e-10
2.69055e-10
1.97836e-10
-3.67153e-12
2.72728e-10
-3.47794e-10
3.44126e-10
-7.59055e-10
4.11257e-10
-1.23266e-09
4.73614e-10
-1.76362e-09
5.30953e-10
-2.34683e-09
5.83217e-10
-2.97731e-09
6.30483e-10
-3.65021e-09
6.729e-10
-4.36091e-09
7.10694e-10
-5.10503e-09
7.44135e-10
-5.87855e-09
7.73511e-10
-6.6777e-09
7.9915e-10
-7.49908e-09
8.21378e-10
-8.33959e-09
8.40512e-10
-9.19646e-09
8.56872e-10
-1.00672e-08
8.70773e-10
-1.09497e-08
8.8251e-10
-1.18421e-08
8.92366e-10
-1.27427e-08
9.0061e-10
-1.36502e-08
9.07492e-10
-1.45634e-08
9.13237e-10
-1.54815e-08
9.1806e-10
-1.64037e-08
9.22158e-10
-1.73294e-08
9.25705e-10
-1.82582e-08
9.28858e-10
-1.919e-08
9.31763e-10
-2.01245e-08
9.34548e-10
-2.10619e-08
9.37324e-10
-2.20021e-08
9.40191e-10
-2.29453e-08
9.43238e-10
-2.38918e-08
9.46541e-10
-2.4842e-08
9.50164e-10
-2.57962e-08
9.54163e-10
-2.67548e-08
9.58587e-10
-2.77182e-08
9.63479e-10
-2.86871e-08
9.6887e-10
-2.96619e-08
9.74784e-10
-3.06431e-08
9.81245e-10
-3.16314e-08
9.8827e-10
-3.26273e-08
9.95872e-10
-3.36313e-08
1.00405e-09
-3.46442e-08
1.01282e-09
-3.56663e-08
1.02218e-09
-3.66984e-08
1.03211e-09
-3.77411e-08
1.04261e-09
-3.87947e-08
1.05367e-09
-3.986e-08
1.06528e-09
-4.09374e-08
1.07741e-09
-4.20275e-08
1.09005e-09
-4.31306e-08
1.10317e-09
-4.42474e-08
1.11673e-09
-4.53781e-08
1.1307e-09
-4.65231e-08
1.14505e-09
-4.76828e-08
1.15972e-09
-4.88575e-08
1.17468e-09
-5.00474e-08
1.18986e-09
-5.12526e-08
1.20521e-09
-5.24733e-08
1.22067e-09
-5.37094e-08
1.23615e-09
-5.4961e-08
1.25159e-09
-5.62279e-08
1.26689e-09
-5.75099e-08
1.28197e-09
-5.88066e-08
1.29673e-09
-6.01177e-08
1.31106e-09
-6.14425e-08
1.32484e-09
-6.27804e-08
1.33795e-09
-6.41307e-08
1.35026e-09
-6.54923e-08
1.36163e-09
-6.68642e-08
1.3719e-09
-6.82451e-08
1.38092e-09
-6.96337e-08
1.38852e-09
-7.10282e-08
1.39453e-09
-7.24269e-08
1.39875e-09
-7.38279e-08
1.40099e-09
-7.5229e-08
1.40104e-09
-7.66277e-08
1.39869e-09
-7.80214e-08
1.39372e-09
-7.94073e-08
1.3859e-09
-8.07823e-08
1.37498e-09
-8.2143e-08
1.36074e-09
-8.34859e-08
1.34291e-09
-8.48071e-08
1.32124e-09
-8.61026e-08
1.29548e-09
-8.7368e-08
1.26537e-09
-8.85986e-08
1.23065e-09
-8.97897e-08
1.19107e-09
-9.09361e-08
1.14637e-09
-9.20324e-08
1.0963e-09
-9.3073e-08
1.04065e-09
-9.40522e-08
9.79171e-10
-9.49639e-08
9.1167e-10
-9.58018e-08
8.37956e-10
-9.65597e-08
7.57864e-10
-9.72309e-08
6.71254e-10
-9.7809e-08
5.78019e-10
-9.8287e-08
4.78088e-10
-9.86585e-08
3.71428e-10
-9.89165e-08
2.5805e-10
-9.90545e-08
1.38017e-10
-9.9066e-08
1.14461e-11
-9.89445e-08
-1.21498e-10
-9.86839e-08
-2.60568e-10
-9.82785e-08
-4.05464e-10
-9.77227e-08
-5.55809e-10
-9.70115e-08
-7.11154e-10
-9.61405e-08
-8.7097e-10
-9.51059e-08
-1.03465e-09
-9.39044e-08
-1.2015e-09
-9.25336e-08
-1.37074e-09
-9.09921e-08
-1.54153e-09
-8.92792e-08
-1.71293e-09
-8.73953e-08
-1.88391e-09
-8.53419e-08
-2.0534e-09
-8.31217e-08
-2.22023e-09
-8.07385e-08
-2.38319e-09
-7.81974e-08
-2.54101e-09
-7.55051e-08
-2.69237e-09
-7.26691e-08
-2.83594e-09
-6.96988e-08
-2.97034e-09
-6.66046e-08
-3.09421e-09
-6.33984e-08
-3.20619e-09
-6.00934e-08
-3.30496e-09
-5.67042e-08
-3.38925e-09
-5.32464e-08
-3.45781e-09
-4.97369e-08
-3.50953e-09
-4.61935e-08
-3.54335e-09
-4.26352e-08
-3.55835e-09
-3.90814e-08
-3.55372e-09
-3.55526e-08
-3.5288e-09
-3.20695e-08
-3.48308e-09
-2.86533e-08
-3.41622e-09
-2.53253e-08
-3.32804e-09
-2.21067e-08
-3.21855e-09
-1.90188e-08
-3.08792e-09
-1.60823e-08
-2.9365e-09
-1.33175e-08
-2.76484e-09
-1.07438e-08
-2.57366e-09
-8.37995e-09
-2.36387e-09
-6.24337e-09
-2.13658e-09
-4.35023e-09
-1.89314e-09
-2.71504e-09
-1.63519e-09
-1.35026e-09
-1.36478e-09
-2.65701e-10
-1.08456e-09
5.32439e-10
-7.98137e-10
1.04313e-09
-5.10689e-10
1.27324e-09
-2.30113e-10
1.24232e-09
3.09211e-11
9.90763e-10
2.5156e-10
5.94274e-10
3.96485e-10
1.91269e-10
4.02995e-10
1.91258e-10
1.42174e-10
-1.94008e-10
4.08434e-10
-4.07109e-10
6.89703e-10
-4.48424e-10
9.03892e-10
-3.59766e-10
9.92316e-10
-1.84263e-10
9.16702e-10
4.5447e-11
6.54434e-10
3.06015e-10
1.94271e-10
5.80968e-10
-4.66792e-10
8.58905e-10
-1.32602e-09
1.13196e-09
-2.3767e-09
1.3948e-09
-3.60935e-09
1.64391e-09
-5.01281e-09
1.87707e-09
-6.57485e-09
2.09299e-09
-8.28276e-09
2.29113e-09
-1.01237e-08
2.47143e-09
-1.20851e-08
2.63427e-09
-1.41547e-08
2.78027e-09
-1.63208e-08
2.91026e-09
-1.85725e-08
3.02521e-09
-2.08995e-08
3.1262e-09
-2.32925e-08
3.21436e-09
-2.57428e-08
3.29082e-09
-2.82427e-08
3.35672e-09
-3.07851e-08
3.4132e-09
-3.33639e-08
3.46133e-09
-3.59737e-08
3.50215e-09
-3.86097e-08
3.53666e-09
-4.1268e-08
3.56578e-09
-4.39452e-08
3.59038e-09
-4.66384e-08
3.61125e-09
-4.93453e-08
3.62913e-09
-5.20643e-08
3.6447e-09
-5.4794e-08
3.65856e-09
-5.75336e-08
3.67127e-09
-6.02823e-08
3.68333e-09
-6.30402e-08
3.69516e-09
-6.58071e-08
3.70716e-09
-6.85836e-08
3.71969e-09
-7.13701e-08
3.73303e-09
-7.41674e-08
3.74746e-09
-7.69764e-08
3.76319e-09
-7.97982e-08
3.78041e-09
-8.26341e-08
3.7993e-09
-8.54852e-08
3.81999e-09
-8.8353e-08
3.84258e-09
-9.12389e-08
3.86717e-09
-9.41445e-08
3.89382e-09
-9.70712e-08
3.92258e-09
-1.00021e-07
3.95348e-09
-1.02994e-07
3.98654e-09
-1.05994e-07
4.02174e-09
-1.09021e-07
4.05908e-09
-1.12077e-07
4.09852e-09
-1.15163e-07
4.14002e-09
-1.18281e-07
4.18351e-09
-1.21433e-07
4.22891e-09
-1.24619e-07
4.27614e-09
-1.27841e-07
4.32509e-09
-1.311e-07
4.37563e-09
-1.34397e-07
4.42762e-09
-1.37733e-07
4.48091e-09
-1.41108e-07
4.53532e-09
-1.44524e-07
4.59065e-09
-1.47981e-07
4.64669e-09
-1.51479e-07
4.7032e-09
-1.55018e-07
4.75992e-09
-1.58599e-07
4.81656e-09
-1.6222e-07
4.87281e-09
-1.65881e-07
4.92834e-09
-1.69582e-07
4.98279e-09
-1.73321e-07
5.03575e-09
-1.77097e-07
5.08682e-09
-1.80908e-07
5.13553e-09
-1.84751e-07
5.18141e-09
-1.88625e-07
5.22394e-09
-1.92526e-07
5.26258e-09
-1.96451e-07
5.29675e-09
-2.00395e-07
5.32582e-09
-2.04356e-07
5.34914e-09
-2.08328e-07
5.36605e-09
-2.12305e-07
5.37582e-09
-2.16281e-07
5.37769e-09
-2.20251e-07
5.3709e-09
-2.24207e-07
5.35463e-09
-2.28141e-07
5.32804e-09
-2.32046e-07
5.29025e-09
-2.35911e-07
5.24039e-09
-2.39728e-07
5.17753e-09
-2.43486e-07
5.10075e-09
-2.47174e-07
5.00911e-09
-2.5078e-07
4.90166e-09
-2.54292e-07
4.77744e-09
-2.57697e-07
4.63551e-09
-2.60981e-07
4.47495e-09
-2.64129e-07
4.29485e-09
-2.67127e-07
4.09431e-09
-2.69959e-07
3.87251e-09
-2.72609e-07
3.62866e-09
-2.75059e-07
3.36204e-09
-2.77293e-07
3.072e-09
-2.79293e-07
2.75799e-09
-2.81041e-07
2.41956e-09
-2.8252e-07
2.05638e-09
-2.8371e-07
1.66826e-09
-2.84594e-07
1.25515e-09
-2.85153e-07
8.17183e-10
-2.8537e-07
3.54679e-10
-2.85226e-07
-1.31845e-10
-2.84706e-07
-6.41656e-10
-2.83793e-07
-1.17378e-09
-2.82471e-07
-1.727e-09
-2.80727e-07
-2.29983e-09
-2.78548e-07
-2.8905e-09
-2.75922e-07
-3.49699e-09
-2.7284e-07
-4.11695e-09
-2.69293e-07
-4.74775e-09
-2.65278e-07
-5.38646e-09
-2.60789e-07
-6.02985e-09
-2.55828e-07
-6.67442e-09
-2.50395e-07
-7.31637e-09
-2.44497e-07
-7.95164e-09
-2.38141e-07
-8.57596e-09
-2.3134e-07
-9.1848e-09
-2.24107e-07
-9.77348e-09
-2.16463e-07
-1.03372e-08
-2.08428e-07
-1.08709e-08
-2.00028e-07
-1.13698e-08
-1.91294e-07
-1.18287e-08
-1.82257e-07
-1.22427e-08
-1.72955e-07
-1.2607e-08
-1.63427e-07
-1.2917e-08
-1.53717e-07
-1.31682e-08
-1.4387e-07
-1.33564e-08
-1.33935e-07
-1.34779e-08
-1.23964e-07
-1.35294e-08
-1.1401e-07
-1.35079e-08
-1.04128e-07
-1.3411e-08
-9.43743e-08
-1.3237e-08
-8.48059e-08
-1.29846e-08
-7.54806e-08
-1.26533e-08
-6.6456e-08
-1.22432e-08
-5.77888e-08
-1.17551e-08
-4.95349e-08
-1.11904e-08
-4.17482e-08
-1.05515e-08
-3.44808e-08
-9.84115e-09
-2.77814e-08
-9.06326e-09
-2.16955e-08
-8.22248e-09
-1.6264e-08
-7.32456e-09
-1.15226e-08
-6.37657e-09
-7.50006e-09
-5.38737e-09
-4.21629e-09
-4.36833e-09
-1.67985e-09
-3.33457e-09
1.16396e-10
-2.30693e-09
1.20144e-09
-1.31515e-09
1.6352e-09
-4.02842e-10
1.52203e-09
3.64735e-10
1.02837e-09
8.90161e-10
4.01431e-10
1.02996e-09
5.92682e-10
1.686e-10
-3.62611e-10
4.51721e-10
-6.90237e-10
7.10191e-10
-7.069e-10
8.44323e-10
-4.93881e-10
7.80794e-10
-1.20741e-10
4.69099e-10
3.5715e-10
-1.22654e-10
8.97758e-10
-1.01171e-09
1.47003e-09
-2.20421e-09
2.0514e-09
-3.69793e-09
2.62568e-09
-5.4846e-09
3.18147e-09
-7.5516e-09
3.71091e-09
-9.88339e-09
4.20886e-09
-1.24626e-08
4.67216e-09
-1.52706e-08
5.09919e-09
-1.82887e-08
5.48948e-09
-2.14979e-08
5.84346e-09
-2.48798e-08
6.16218e-09
-2.84167e-08
6.44717e-09
-3.20918e-08
6.70032e-09
-3.58893e-08
6.92373e-09
-3.97946e-08
7.11965e-09
-4.37942e-08
7.29042e-09
-4.78759e-08
7.4384e-09
-5.20286e-08
7.5659e-09
-5.62425e-08
7.67521e-09
-6.05088e-08
7.7685e-09
-6.48201e-08
7.84788e-09
-6.91696e-08
7.9153e-09
-7.35518e-08
7.97263e-09
-7.79622e-08
8.02157e-09
-8.23967e-08
8.06372e-09
-8.68526e-08
8.10052e-09
-9.13273e-08
8.13331e-09
-9.58193e-08
8.16329e-09
-1.00328e-07
8.19154e-09
-1.04851e-07
8.21902e-09
-1.09391e-07
8.2466e-09
-1.13946e-07
8.27504e-09
-1.18518e-07
8.30501e-09
-1.23108e-07
8.33709e-09
-1.27716e-07
8.37179e-09
-1.32346e-07
8.40954e-09
-1.36997e-07
8.4507e-09
-1.41673e-07
8.49558e-09
-1.46374e-07
8.54444e-09
-1.51105e-07
8.59747e-09
-1.55866e-07
8.65483e-09
-1.6066e-07
8.71663e-09
-1.65489e-07
8.78293e-09
-1.70356e-07
8.85376e-09
-1.75264e-07
8.92913e-09
-1.80214e-07
9.00899e-09
-1.85208e-07
9.09327e-09
-1.9025e-07
9.18186e-09
-1.95341e-07
9.27463e-09
-2.00484e-07
9.3714e-09
-2.0568e-07
9.47195e-09
-2.10931e-07
9.57606e-09
-2.16239e-07
9.68343e-09
-2.21605e-07
9.79374e-09
-2.2703e-07
9.90665e-09
-2.32517e-07
1.00218e-08
-2.38065e-07
1.01386e-08
-2.43675e-07
1.02567e-08
-2.49347e-07
1.03756e-08
-2.55082e-07
1.04945e-08
-2.60878e-07
1.0613e-08
-2.66736e-07
1.07303e-08
-2.72653e-07
1.08457e-08
-2.78629e-07
1.09583e-08
-2.8466e-07
1.10673e-08
-2.90745e-07
1.11718e-08
-2.9688e-07
1.12707e-08
-3.03062e-07
1.1363e-08
-3.09286e-07
1.14476e-08
-3.15546e-07
1.15232e-08
-3.21838e-07
1.15886e-08
-3.28155e-07
1.16424e-08
-3.34489e-07
1.16833e-08
-3.40833e-07
1.17097e-08
-3.47177e-07
1.17201e-08
-3.53512e-07
1.17128e-08
-3.59827e-07
1.16862e-08
-3.66111e-07
1.16385e-08
-3.72351e-07
1.15679e-08
-3.78533e-07
1.14726e-08
-3.84643e-07
1.13506e-08
-3.90666e-07
1.11999e-08
-3.96584e-07
1.10187e-08
-4.0238e-07
1.0805e-08
-4.08035e-07
1.05566e-08
-4.13529e-07
1.02717e-08
-4.18842e-07
9.94815e-09
-4.23951e-07
9.58412e-09
-4.28834e-07
9.1777e-09
-4.33466e-07
8.72706e-09
-4.37824e-07
8.23048e-09
-4.41882e-07
7.68637e-09
-4.45613e-07
7.09328e-09
-4.48991e-07
6.44992e-09
-4.51988e-07
5.75521e-09
-4.54577e-07
5.00831e-09
-4.56729e-07
4.20863e-09
-4.58417e-07
3.35589e-09
-4.59612e-07
2.45013e-09
-4.60287e-07
1.49176e-09
-4.60413e-07
4.81602e-10
-4.59966e-07
-5.79114e-10
-4.58919e-07
-1.68867e-09
-4.57248e-07
-2.84487e-09
-4.5493e-07
-4.04497e-09
-4.51944e-07
-5.28568e-09
-4.48272e-07
-6.56314e-09
-4.43896e-07
-7.87289e-09
-4.38803e-07
-9.20984e-09
-4.32982e-07
-1.05683e-08
-4.26427e-07
-1.1942e-08
-4.19133e-07
-1.3324e-08
-4.111e-07
-1.47068e-08
-4.02334e-07
-1.60822e-08
-3.92844e-07
-1.74418e-08
-3.82644e-07
-1.87763e-08
-3.71752e-07
-2.00763e-08
-3.60194e-07
-2.13319e-08
-3.47998e-07
-2.25327e-08
-3.35201e-07
-2.36685e-08
-3.21842e-07
-2.47288e-08
-3.07967e-07
-2.57031e-08
-2.93629e-07
-2.65809e-08
-2.78884e-07
-2.73522e-08
-2.63794e-07
-2.80072e-08
-2.48425e-07
-2.85366e-08
-2.3285e-07
-2.89318e-08
-2.17143e-07
-2.9185e-08
-2.01383e-07
-2.9289e-08
-1.85653e-07
-2.92379e-08
-1.70038e-07
-2.90268e-08
-1.54623e-07
-2.86519e-08
-1.39496e-07
-2.81109e-08
-1.24747e-07
-2.74026e-08
-1.10463e-07
-2.65276e-08
-9.67301e-08
-2.54876e-08
-8.36346e-08
-2.4286e-08
-7.12582e-08
-2.29279e-08
-5.96792e-08
-2.14201e-08
-4.89713e-08
-1.97711e-08
-3.9202e-08
-1.79918e-08
-3.04313e-08
-1.60952e-08
-2.27102e-08
-1.40977e-08
-1.60782e-08
-1.20194e-08
-1.05604e-08
-9.88607e-09
-6.16396e-09
-7.73103e-09
-2.87215e-09
-5.59874e-09
-6.37396e-10
-3.5499e-09
6.28721e-10
-1.66897e-09
1.06832e-09
-7.48744e-11
8.91786e-10
1.06668e-09
3.94612e-10
1.52715e-09
9.87292e-10
1.4833e-10
-5.10952e-10
3.65315e-10
-9.07201e-10
4.99807e-10
-8.414e-10
4.43835e-10
-4.37907e-10
1.17856e-10
2.05236e-10
-5.34131e-10
1.00914e-09
-1.54857e-09
1.91219e-09
-2.94599e-09
2.86747e-09
-4.73437e-09
3.83977e-09
-6.91181e-09
4.80313e-09
-9.46902e-09
5.73868e-09
-1.23912e-08
6.6331e-09
-1.56597e-08
7.47733e-09
-1.92531e-08
8.2656e-09
-2.31486e-08
8.9947e-09
-2.73226e-08
9.6634e-09
-3.1751e-08
1.0272e-08
-3.64106e-08
1.08218e-08
-4.12786e-08
1.13151e-08
-4.63332e-08
1.17549e-08
-5.15539e-08
1.21444e-08
-5.69216e-08
1.24873e-08
-6.24186e-08
1.27874e-08
-6.80287e-08
1.30485e-08
-7.37372e-08
1.32744e-08
-7.9531e-08
1.3469e-08
-8.53984e-08
1.36359e-08
-9.1329e-08
1.37785e-08
-9.7314e-08
1.39003e-08
-1.03346e-07
1.40044e-08
-1.09418e-07
1.40936e-08
-1.15525e-07
1.41707e-08
-1.21662e-07
1.42381e-08
-1.27827e-07
1.42982e-08
-1.34017e-07
1.4353e-08
-1.4023e-07
1.44044e-08
-1.46465e-07
1.44541e-08
-1.52722e-07
1.45035e-08
-1.59001e-07
1.4554e-08
-1.65303e-07
1.46068e-08
-1.71628e-07
1.46628e-08
-1.7798e-07
1.4723e-08
-1.84358e-07
1.47882e-08
-1.90766e-07
1.48589e-08
-1.97207e-07
1.49358e-08
-2.03681e-07
1.50192e-08
-2.10194e-07
1.51096e-08
-2.16746e-07
1.52071e-08
-2.23341e-07
1.53121e-08
-2.29983e-07
1.54246e-08
-2.36674e-07
1.55447e-08
-2.43417e-07
1.56723e-08
-2.50215e-07
1.58074e-08
-2.57072e-07
1.59499e-08
-2.6399e-07
1.60996e-08
-2.70972e-07
1.62563e-08
-2.7802e-07
1.64195e-08
-2.85137e-07
1.6589e-08
-2.92325e-07
1.67643e-08
-2.99586e-07
1.69449e-08
-3.06923e-07
1.71302e-08
-3.14336e-07
1.73196e-08
-3.21827e-07
1.75125e-08
-3.29396e-07
1.77079e-08
-3.37044e-07
1.79051e-08
-3.44772e-07
1.8103e-08
-3.52578e-07
1.83008e-08
-3.60462e-07
1.84971e-08
-3.68423e-07
1.86909e-08
-3.76458e-07
1.88807e-08
-3.84564e-07
1.90653e-08
-3.9274e-07
1.92429e-08
-4.0098e-07
1.94121e-08
-4.09281e-07
1.95711e-08
-4.17636e-07
1.9718e-08
-4.26039e-07
1.98508e-08
-4.34483e-07
1.99675e-08
-4.4296e-07
2.00658e-08
-4.51461e-07
2.01435e-08
-4.59976e-07
2.0198e-08
-4.68493e-07
2.02269e-08
-4.77001e-07
2.02274e-08
-4.85485e-07
2.01968e-08
-4.93931e-07
2.01322e-08
-5.02323e-07
2.00305e-08
-5.10644e-07
1.98888e-08
-5.18875e-07
1.97038e-08
-5.26996e-07
1.94723e-08
-5.34987e-07
1.9191e-08
-5.42825e-07
1.88566e-08
-5.50486e-07
1.84657e-08
-5.57944e-07
1.8015e-08
-5.65174e-07
1.75011e-08
-5.72147e-07
1.69208e-08
-5.78833e-07
1.62708e-08
-5.85204e-07
1.5548e-08
-5.91226e-07
1.47494e-08
-5.96868e-07
1.38722e-08
-6.02095e-07
1.29139e-08
-6.06874e-07
1.18721e-08
-6.11169e-07
1.07448e-08
-6.14944e-07
9.53029e-09
-6.18163e-07
8.22738e-09
-6.20789e-07
6.83524e-09
-6.22787e-07
5.35357e-09
-6.2412e-07
3.78266e-09
-6.24751e-07
2.12338e-09
-6.24647e-07
3.77326e-10
-6.23773e-07
-1.4532e-09
-6.22097e-07
-3.36511e-09
-6.19587e-07
-5.35446e-09
-6.16215e-07
-7.41643e-09
-6.11956e-07
-9.54529e-09
-6.06785e-07
-1.17343e-08
-6.00682e-07
-1.39758e-08
-5.9363e-07
-1.62611e-08
-5.85618e-07
-1.85805e-08
-5.76637e-07
-2.09231e-08
-5.66684e-07
-2.32773e-08
-5.5576e-07
-2.56303e-08
-5.43874e-07
-2.79685e-08
-5.31039e-07
-3.02773e-08
-5.17273e-07
-3.25415e-08
-5.02605e-07
-3.47449e-08
-4.87066e-07
-3.68711e-08
-4.70695e-07
-3.89029e-08
-4.53541e-07
-4.08229e-08
-4.35656e-07
-4.26137e-08
-4.17102e-07
-4.42576e-08
-3.97945e-07
-4.57374e-08
-3.78261e-07
-4.70363e-08
-3.5813e-07
-4.81379e-08
-3.3764e-07
-4.90269e-08
-3.16883e-07
-4.96889e-08
-2.95957e-07
-5.01107e-08
-2.74965e-07
-5.02808e-08
-2.54014e-07
-5.01892e-08
-2.33213e-07
-4.98278e-08
-2.12675e-07
-4.91905e-08
-1.92512e-07
-4.82733e-08
-1.7284e-07
-4.70748e-08
-1.53772e-07
-4.55957e-08
-1.3542e-07
-4.38396e-08
-1.17893e-07
-4.18125e-08
-1.01298e-07
-3.95234e-08
-8.57336e-08
-3.69843e-08
-7.12943e-08
-3.42105e-08
-5.8065e-08
-3.12211e-08
-4.61207e-08
-2.80395e-08
-3.5524e-08
-2.46944e-08
-2.63221e-08
-2.12213e-08
-1.85437e-08
-1.76645e-08
-1.21941e-08
-1.40806e-08
-7.25005e-09
-1.05428e-08
-3.65236e-09
-7.14758e-09
-1.29727e-09
-4.02405e-09
-2.57887e-11
-1.34636e-09
3.88853e-10
6.5203e-10
2.54768e-10
1.66124e-09
1.24206e-09
9.93304e-11
-6.10283e-10
1.89388e-10
-9.97266e-10
1.22493e-10
-7.74509e-10
-2.09095e-10
-1.06313e-10
-8.85113e-10
8.81243e-10
-1.9622e-09
2.08622e-09
-3.47764e-09
3.42764e-09
-5.45271e-09
4.84254e-09
-7.89561e-09
6.28267e-09
-1.0804e-08
7.71156e-09
-1.41676e-08
9.10219e-09
-1.79695e-08
1.0435e-08
-2.21885e-08
1.16964e-08
-2.68004e-08
1.28775e-08
-3.17786e-08
1.39729e-08
-3.70957e-08
1.49805e-08
-4.27238e-08
1.59e-08
-4.86352e-08
1.67332e-08
-5.4803e-08
1.7483e-08
-6.12015e-08
1.81534e-08
-6.7806e-08
1.8749e-08
-7.45936e-08
1.92749e-08
-8.15429e-08
1.97367e-08
-8.86342e-08
2.01398e-08
-9.58498e-08
2.049e-08
-1.03173e-07
2.07926e-08
-1.10591e-07
2.10531e-08
-1.18089e-07
2.12767e-08
-1.25657e-07
2.14683e-08
-1.33285e-07
2.16326e-08
-1.40965e-07
2.17739e-08
-1.48691e-07
2.18963e-08
-1.56456e-07
2.20036e-08
-1.64257e-07
2.20991e-08
-1.7209e-07
2.2186e-08
-1.79953e-07
2.22672e-08
-1.87844e-07
2.23452e-08
-1.95763e-07
2.24222e-08
-2.03709e-07
2.25004e-08
-2.11684e-07
2.25814e-08
-2.19688e-07
2.2667e-08
-2.27723e-07
2.27584e-08
-2.35792e-07
2.28568e-08
-2.43897e-07
2.29633e-08
-2.52039e-07
2.30787e-08
-2.60224e-07
2.32036e-08
-2.68453e-07
2.33386e-08
-2.7673e-07
2.34842e-08
-2.85058e-07
2.36407e-08
-2.93442e-07
2.38082e-08
-3.01884e-07
2.39869e-08
-3.10389e-07
2.41767e-08
-3.18959e-07
2.43775e-08
-3.27598e-07
2.45892e-08
-3.3631e-07
2.48113e-08
-3.45097e-07
2.50436e-08
-3.53963e-07
2.52855e-08
-3.62911e-07
2.55365e-08
-3.71942e-07
2.57958e-08
-3.8106e-07
2.60626e-08
-3.90266e-07
2.63362e-08
-3.99562e-07
2.66154e-08
-4.08948e-07
2.68993e-08
-4.18427e-07
2.71864e-08
-4.27998e-07
2.74756e-08
-4.3766e-07
2.77653e-08
-4.47413e-07
2.80539e-08
-4.57256e-07
2.83397e-08
-4.67186e-07
2.86208e-08
-4.772e-07
2.88952e-08
-4.87295e-07
2.91606e-08
-4.97467e-07
2.94147e-08
-5.0771e-07
2.9655e-08
-5.18018e-07
2.98789e-08
-5.28383e-07
3.00835e-08
-5.38798e-07
3.02657e-08
-5.49253e-07
3.04225e-08
-5.59738e-07
3.05504e-08
-5.7024e-07
3.06459e-08
-5.80748e-07
3.07054e-08
-5.91246e-07
3.07248e-08
-6.01718e-07
3.07003e-08
-6.12149e-07
3.06275e-08
-6.22519e-07
3.05022e-08
-6.32808e-07
3.03198e-08
-6.42995e-07
3.00758e-08
-6.53057e-07
2.97654e-08
-6.62969e-07
2.93838e-08
-6.72704e-07
2.89261e-08
-6.82235e-07
2.83874e-08
-6.91532e-07
2.77627e-08
-7.00564e-07
2.7047e-08
-7.09298e-07
2.62355e-08
-7.177e-07
2.53233e-08
-7.25735e-07
2.43057e-08
-7.33366e-07
2.31782e-08
-7.40553e-07
2.19366e-08
-7.47257e-07
2.05768e-08
-7.53439e-07
1.90951e-08
-7.59055e-07
1.74883e-08
-7.64063e-07
1.57535e-08
-7.68422e-07
1.38885e-08
-7.72086e-07
1.18917e-08
-7.75013e-07
9.76217e-09
-7.77159e-07
7.49966e-09
-7.78481e-07
5.10487e-09
-7.78937e-07
2.57943e-09
-7.78486e-07
-7.40412e-11
-7.77087e-07
-2.85184e-09
-7.74703e-07
-5.74908e-09
-7.71298e-07
-8.75963e-09
-7.66838e-07
-1.18761e-08
-7.61294e-07
-1.50896e-08
-7.54638e-07
-1.83901e-08
-7.46848e-07
-2.17658e-08
-7.37906e-07
-2.52037e-08
-7.27797e-07
-2.86891e-08
-7.16514e-07
-3.2206e-08
-7.04055e-07
-3.57367e-08
-6.90423e-07
-3.92624e-08
-6.75628e-07
-4.27628e-08
-6.59689e-07
-4.62162e-08
-6.42631e-07
-4.96001e-08
-6.24485e-07
-5.28906e-08
-6.05293e-07
-5.60634e-08
-5.85103e-07
-5.90931e-08
-5.63971e-07
-6.19542e-08
-5.41964e-07
-6.46209e-08
-5.19155e-07
-6.70673e-08
-4.95624e-07
-6.92681e-08
-4.71462e-07
-7.11984e-08
-4.46765e-07
-7.28344e-08
-4.21639e-07
-7.41534e-08
-3.96193e-07
-7.51344e-08
-3.70546e-07
-7.57581e-08
-3.44819e-07
-7.60074e-08
-3.19141e-07
-7.58678e-08
-2.93641e-07
-7.53274e-08
-2.68454e-07
-7.43774e-08
-2.43715e-07
-7.30122e-08
-2.19561e-07
-7.12296e-08
-1.96125e-07
-6.90313e-08
-1.73542e-07
-6.64227e-08
-1.51941e-07
-6.34133e-08
-1.31447e-07
-6.0017e-08
-1.12179e-07
-5.62524e-08
-9.42467e-08
-5.21431e-08
-7.77493e-08
-4.77185e-08
-6.27743e-08
-4.30145e-08
-4.93938e-08
-3.8075e-08
-3.76615e-08
-3.29536e-08
-2.76093e-08
-2.77166e-08
-1.92431e-08
-2.24468e-08
-1.2537e-08
-1.72489e-08
-7.42773e-09
-1.22569e-08
-3.8072e-09
-7.64458e-09
-1.51459e-09
-3.63896e-09
-3.27754e-10
-5.34808e-10
4.75918e-11
1.28589e-09
1.28966e-09
3.2938e-11
-6.43217e-10
-4.64838e-11
-9.17848e-10
-3.72432e-10
-4.48545e-10
-1.04554e-09
5.6679e-10
-2.14081e-09
1.97651e-09
-3.71172e-09
3.65714e-09
-5.79344e-09
5.50935e-09
-8.40565e-09
7.45476e-09
-1.15552e-08
9.4322e-09
-1.52383e-08
1.13947e-08
-1.94429e-08
1.33068e-08
-2.41504e-08
1.51424e-08
-2.9337e-08
1.68831e-08
-3.49758e-08
1.85163e-08
-4.10374e-08
2.00345e-08
-4.7491e-08
2.14341e-08
-5.43055e-08
2.27144e-08
-6.14496e-08
2.38773e-08
-6.8893e-08
2.49264e-08
-7.66064e-08
2.58667e-08
-8.45618e-08
2.67043e-08
-9.27328e-08
2.7446e-08
-1.01095e-07
2.80989e-08
-1.09626e-07
2.86705e-08
-1.18304e-07
2.91684e-08
-1.27112e-07
2.96001e-08
-1.36031e-07
2.99728e-08
-1.45048e-07
3.02937e-08
-1.54149e-07
3.05695e-08
-1.63323e-07
3.08066e-08
-1.72561e-07
3.1011e-08
-1.81853e-07
3.11884e-08
-1.91193e-07
3.13439e-08
-2.00576e-07
3.14823e-08
-2.09998e-07
3.1608e-08
-2.19456e-07
3.17249e-08
-2.28947e-07
3.18366e-08
-2.38471e-07
3.19463e-08
-2.48028e-07
3.20569e-08
-2.57617e-07
3.21709e-08
-2.67241e-07
3.22905e-08
-2.769e-07
3.24177e-08
-2.86597e-07
3.25541e-08
-2.96335e-07
3.27012e-08
-3.06117e-07
3.28601e-08
-3.15945e-07
3.3032e-08
-3.25824e-07
3.32175e-08
-3.35757e-07
3.34172e-08
-3.45748e-07
3.36317e-08
-3.55801e-07
3.38611e-08
-3.65919e-07
3.41056e-08
-3.76108e-07
3.43653e-08
-3.8637e-07
3.46398e-08
-3.9671e-07
3.4929e-08
-4.07131e-07
3.52324e-08
-4.17637e-07
3.55494e-08
-4.28231e-07
3.58793e-08
-4.38915e-07
3.62212e-08
-4.49694e-07
3.65742e-08
-4.60568e-07
3.69372e-08
-4.71541e-07
3.73088e-08
-4.82613e-07
3.76876e-08
-4.93786e-07
3.80721e-08
-5.0506e-07
3.84604e-08
-5.16435e-07
3.88507e-08
-5.27911e-07
3.92408e-08
-5.39485e-07
3.96285e-08
-5.51157e-07
4.00111e-08
-5.62922e-07
4.03862e-08
-5.74778e-07
4.07507e-08
-5.86719e-07
4.11015e-08
-5.98739e-07
4.14354e-08
-6.10833e-07
4.17488e-08
-6.22992e-07
4.20379e-08
-6.35207e-07
4.22988e-08
-6.47469e-07
4.25271e-08
-6.59765e-07
4.27184e-08
-6.72082e-07
4.2868e-08
-6.84407e-07
4.2971e-08
-6.96724e-07
4.30221e-08
-7.09015e-07
4.30161e-08
-7.21262e-07
4.29471e-08
-7.33444e-07
4.28095e-08
-7.45539e-07
4.25973e-08
-7.57524e-07
4.23041e-08
-7.69371e-07
4.19236e-08
-7.81055e-07
4.14494e-08
-7.92546e-07
4.08748e-08
-8.03813e-07
4.01931e-08
-8.14824e-07
3.93975e-08
-8.25542e-07
3.84814e-08
-8.35933e-07
3.74379e-08
-8.45958e-07
3.62604e-08
-8.55577e-07
3.49425e-08
-8.6475e-07
3.34778e-08
-8.73432e-07
3.18603e-08
-8.81579e-07
3.00842e-08
-8.89147e-07
2.81443e-08
-8.96087e-07
2.60357e-08
-9.02353e-07
2.37543e-08
-9.07896e-07
2.12964e-08
-9.12667e-07
1.86592e-08
-9.16616e-07
1.58408e-08
-9.19694e-07
1.28403e-08
-9.21852e-07
9.65764e-09
-9.23041e-07
6.29421e-09
-9.23215e-07
2.75254e-09
-9.22325e-07
-9.63421e-10
-9.20329e-07
-4.84823e-09
-9.17183e-07
-8.89484e-09
-9.12848e-07
-1.30945e-08
-9.07287e-07
-1.74368e-08
-9.00468e-07
-2.19093e-08
-8.9236e-07
-2.64977e-08
-8.8294e-07
-3.1186e-08
-8.72188e-07
-3.59558e-08
-8.6009e-07
-4.07869e-08
-8.46639e-07
-4.56573e-08
-8.31833e-07
-5.05426e-08
-8.15678e-07
-5.54171e-08
-7.98188e-07
-6.02527e-08
-7.79385e-07
-6.50201e-08
-7.59296e-07
-6.96882e-08
-7.37962e-07
-7.42246e-08
-7.1543e-07
-7.85961e-08
-6.91755e-07
-8.27682e-08
-6.67003e-07
-8.6706e-08
-6.41249e-07
-9.03746e-08
-6.14578e-07
-9.37388e-08
-5.87082e-07
-9.67641e-08
-5.58863e-07
-9.94168e-08
-5.30033e-07
-1.01664e-07
-5.0071e-07
-1.03476e-07
-4.71021e-07
-1.04824e-07
-4.41098e-07
-1.05681e-07
-4.11081e-07
-1.06024e-07
-3.81115e-07
-1.05834e-07
-3.51349e-07
-1.05094e-07
-3.21933e-07
-1.03793e-07
-2.93022e-07
-1.01923e-07
-2.64771e-07
-9.94813e-08
-2.37331e-07
-9.64706e-08
-2.10855e-07
-9.28987e-08
-1.8549e-07
-8.87789e-08
-1.61376e-07
-8.41311e-08
-1.38647e-07
-7.89813e-08
-1.17427e-07
-7.33629e-08
-9.78286e-08
-6.7317e-08
-7.9949e-08
-6.08941e-08
-6.3869e-08
-5.4155e-08
-4.96488e-08
-4.71737e-08
-3.73251e-08
-4.00403e-08
-2.69066e-08
-3.28654e-08
-1.83696e-08
-2.57858e-08
-1.16535e-08
-1.8973e-08
-6.65515e-09
-1.2643e-08
-3.22366e-09
-7.07045e-09
-1.15561e-09
-2.60286e-09
-1.89861e-10
3.20136e-10
1.0998e-09
-4.39443e-11
-5.99271e-10
-3.21778e-10
-6.40016e-10
-9.48665e-10
1.78337e-10
-2.01316e-09
1.63129e-09
-3.58173e-09
3.54509e-09
-5.70164e-09
5.77704e-09
-8.40336e-09
8.21108e-09
-1.1703e-08
1.07544e-08
-1.56045e-08
1.33337e-08
-2.01016e-08
1.58918e-08
-2.51799e-08
1.8385e-08
-3.08181e-08
2.07807e-08
-3.69905e-08
2.30554e-08
-4.36671e-08
2.5193e-08
-5.08161e-08
2.71835e-08
-5.84038e-08
2.90218e-08
-6.63961e-08
3.07067e-08
-7.47588e-08
3.22401e-08
-8.34585e-08
3.36262e-08
-9.2463e-08
3.48712e-08
-1.01741e-07
3.59826e-08
-1.11264e-07
3.69689e-08
-1.21004e-07
3.78391e-08
-1.30937e-07
3.86028e-08
-1.41038e-07
3.92696e-08
-1.51287e-07
3.9849e-08
-1.61665e-07
4.03506e-08
-1.72154e-07
4.07835e-08
-1.82741e-07
4.11563e-08
-1.93412e-07
4.14775e-08
-2.04156e-07
4.17548e-08
-2.14963e-07
4.19957e-08
-2.25826e-07
4.22069e-08
-2.36738e-07
4.23946e-08
-2.47695e-07
4.25646e-08
-2.58692e-07
4.27222e-08
-2.69728e-07
4.28721e-08
-2.808e-07
4.30185e-08
-2.91908e-07
4.31652e-08
-3.03053e-07
4.33156e-08
-3.14235e-07
4.34726e-08
-3.25456e-07
4.36389e-08
-3.36719e-07
4.38167e-08
-3.48026e-07
4.40079e-08
-3.59379e-07
4.4214e-08
-3.70784e-07
4.44366e-08
-3.82243e-07
4.46765e-08
-3.93761e-07
4.49347e-08
-4.05341e-07
4.52117e-08
-4.16987e-07
4.55079e-08
-4.28705e-07
4.58234e-08
-4.40498e-07
4.61583e-08
-4.52371e-07
4.65122e-08
-4.64326e-07
4.68849e-08
-4.7637e-07
4.72756e-08
-4.88504e-07
4.76837e-08
-5.00733e-07
4.81081e-08
-5.13059e-07
4.85476e-08
-5.25486e-07
4.9001e-08
-5.38016e-07
4.94667e-08
-5.5065e-07
4.9943e-08
-5.6339e-07
5.04279e-08
-5.76237e-07
5.09192e-08
-5.89191e-07
5.14145e-08
-6.02252e-07
5.19114e-08
-6.15418e-07
5.24068e-08
-6.28687e-07
5.28977e-08
-6.42057e-07
5.33808e-08
-6.55523e-07
5.38525e-08
-6.69081e-07
5.43088e-08
-6.82725e-07
5.47457e-08
-6.96448e-07
5.51586e-08
-7.10242e-07
5.55428e-08
-7.24098e-07
5.58934e-08
-7.38004e-07
5.6205e-08
-7.51949e-07
5.64719e-08
-7.65919e-07
5.66882e-08
-7.79898e-07
5.68477e-08
-7.93871e-07
5.69439e-08
-8.07819e-07
5.69699e-08
-8.21722e-07
5.69187e-08
-8.35557e-07
5.67828e-08
-8.49302e-07
5.65546e-08
-8.62931e-07
5.62262e-08
-8.76417e-07
5.57895e-08
-8.89729e-07
5.52362e-08
-9.02838e-07
5.45579e-08
-9.15709e-07
5.37459e-08
-9.28308e-07
5.27917e-08
-9.40596e-07
5.16864e-08
-9.52536e-07
5.04214e-08
-9.64087e-07
4.8988e-08
-9.75204e-07
4.73778e-08
-9.85844e-07
4.55824e-08
-9.9596e-07
4.35939e-08
-1.0055e-06
4.14046e-08
-1.01443e-06
3.90073e-08
-1.02268e-06
3.63954e-08
-1.03021e-06
3.35629e-08
-1.03696e-06
3.05047e-08
-1.04288e-06
2.72165e-08
-1.04791e-06
2.36949e-08
-1.05201e-06
1.99379e-08
-1.05511e-06
1.59445e-08
-1.05717e-06
1.17154e-08
-1.05813e-06
7.25251e-09
-1.05794e-06
2.55964e-09
-1.05654e-06
-2.35768e-09
-1.0539e-06
-7.49198e-09
-1.04996e-06
-1.28337e-08
-1.04468e-06
-1.83712e-08
-1.03803e-06
-2.40904e-08
-1.02996e-06
-2.99751e-08
-1.02045e-06
-3.60064e-08
-1.00948e-06
-4.21631e-08
-9.97012e-07
-4.84213e-08
-9.83044e-07
-5.47546e-08
-9.67567e-07
-6.11342e-08
-9.50581e-07
-6.75288e-08
-9.32093e-07
-7.39045e-08
-9.12121e-07
-8.02254e-08
-8.90687e-07
-8.64533e-08
-8.67828e-07
-9.25481e-08
-8.43584e-07
-9.84681e-08
-8.1801e-07
-1.0417e-07
-7.91168e-07
-1.0961e-07
-7.63131e-07
-1.14743e-07
-7.33981e-07
-1.19524e-07
-7.03813e-07
-1.23907e-07
-6.72728e-07
-1.27849e-07
-6.4084e-07
-1.31305e-07
-6.08271e-07
-1.34234e-07
-5.7515e-07
-1.36597e-07
-5.41618e-07
-1.38356e-07
-5.07821e-07
-1.39478e-07
-4.73911e-07
-1.39933e-07
-4.40049e-07
-1.39696e-07
-4.06397e-07
-1.38746e-07
-3.73124e-07
-1.37067e-07
-3.40396e-07
-1.3465e-07
-3.08386e-07
-1.31492e-07
-2.7726e-07
-1.27596e-07
-2.47186e-07
-1.22973e-07
-2.18324e-07
-1.1764e-07
-1.90831e-07
-1.11624e-07
-1.64852e-07
-1.0496e-07
-1.40525e-07
-9.769e-08
-1.17972e-07
-8.98697e-08
-9.73018e-08
-8.15648e-08
-7.86023e-08
-7.28545e-08
-6.19417e-08
-6.38343e-08
-4.7363e-08
-5.4619e-08
-3.4881e-08
-4.53473e-08
-2.44788e-08
-3.6188e-08
-1.61041e-08
-2.73476e-08
-9.66606e-09
-1.90811e-08
-5.03241e-09
-1.17041e-08
-2.02831e-09
-5.60696e-09
-4.3637e-10
-1.2718e-09
6.63427e-10
-1.27015e-10
-4.72259e-10
-6.22525e-10
-1.44511e-10
-1.58011e-09
1.13593e-09
-3.07312e-09
3.12429e-09
-5.15664e-09
5.62861e-09
-7.86921e-09
8.48961e-09
-1.12346e-08
1.15765e-08
-1.52636e-08
1.47834e-08
-1.99557e-08
1.80259e-08
-2.53012e-08
2.12373e-08
-3.12823e-08
2.43661e-08
-3.78751e-08
2.73735e-08
-4.50508e-08
3.02311e-08
-5.27771e-08
3.29193e-08
-6.10193e-08
3.54256e-08
-6.9741e-08
3.77435e-08
-7.89055e-08
3.98712e-08
-8.84761e-08
4.18106e-08
-9.84165e-08
4.35666e-08
-1.08692e-07
4.51466e-08
-1.19269e-07
4.65595e-08
-1.30116e-07
4.78156e-08
-1.41203e-07
4.8926e-08
-1.52502e-07
4.99022e-08
-1.63989e-07
5.07562e-08
-1.75639e-07
5.14998e-08
-1.87433e-07
5.21446e-08
-1.99352e-07
5.2702e-08
-2.11379e-07
5.31829e-08
-2.23499e-07
5.35977e-08
-2.357e-07
5.39562e-08
-2.47972e-07
5.42677e-08
-2.60306e-07
5.45405e-08
-2.72694e-07
5.47827e-08
-2.85131e-07
5.50015e-08
-2.97612e-07
5.52035e-08
-3.10135e-07
5.53947e-08
-3.22697e-07
5.55805e-08
-3.35297e-07
5.57658e-08
-3.47936e-07
5.59547e-08
-3.60615e-07
5.61512e-08
-3.73335e-07
5.63585e-08
-3.86097e-07
5.65795e-08
-3.98906e-07
5.68166e-08
-4.11764e-07
5.7072e-08
-4.24675e-07
5.73473e-08
-4.37642e-07
5.76439e-08
-4.5067e-07
5.79629e-08
-4.63764e-07
5.8305e-08
-4.76927e-07
5.86707e-08
-4.90163e-07
5.90601e-08
-5.03478e-07
5.94734e-08
-5.16876e-07
5.99101e-08