/*--------------------------------*- C++ -*----------------------------------*\
  =========                 |
  \\      /  F ield         | OpenFOAM: The Open Source CFD Toolbox
   \\    /   O peration     | Website:  https://openfoam.org
    \\  /    A nd           | Version:  7
     \\/     M anipulation  |
\*---------------------------------------------------------------------------*/
FoamFile
{
    version     2.0;
    format      ascii;
    class       volVectorField;
    location    "0.3875";
    object      U;
}
// * * * * * * * * * * * * * * * * * * * * * * * * * * * * * * * * * * * * * //

dimensions      [0 1 -1 0 0 0 0];

internalField   nonuniform List<vector> 
12800
(
(3.38062e-06 -3.17488e-06 0)
(1.82864e-05 -9.61987e-06 0)
(4.42252e-05 -1.19765e-05 0)
(7.04957e-05 -1.10859e-05 0)
(9.061e-05 -8.42612e-06 0)
(0.000101131 -4.86634e-06 0)
(0.000100277 -9.15678e-07 0)
(8.71978e-05 3.13192e-06 0)
(6.16898e-05 7.10496e-06 0)
(2.39662e-05 1.09052e-05 0)
(-2.55095e-05 1.44742e-05 0)
(-8.60999e-05 1.77844e-05 0)
(-0.000157062 2.08204e-05 0)
(-0.000237607 2.35785e-05 0)
(-0.000326923 2.60637e-05 0)
(-0.0004242 2.82865e-05 0)
(-0.000528646 3.02595e-05 0)
(-0.0006395 3.19977e-05 0)
(-0.000756044 3.35177e-05 0)
(-0.000877603 3.48363e-05 0)
(-0.00100355 3.59726e-05 0)
(-0.00113332 3.69448e-05 0)
(-0.00126638 3.77698e-05 0)
(-0.00140227 3.84639e-05 0)
(-0.00154058 3.90429e-05 0)
(-0.00168092 3.95217e-05 0)
(-0.00182298 3.99148e-05 0)
(-0.00196647 4.0236e-05 0)
(-0.00211117 4.04975e-05 0)
(-0.00225687 4.07099e-05 0)
(-0.00240341 4.08834e-05 0)
(-0.00255065 4.10274e-05 0)
(-0.0026985 4.11499e-05 0)
(-0.00284688 4.12582e-05 0)
(-0.00299574 4.13592e-05 0)
(-0.00314505 4.1459e-05 0)
(-0.00329479 4.15626e-05 0)
(-0.00344499 4.16742e-05 0)
(-0.00359566 4.17979e-05 0)
(-0.00374683 4.19371e-05 0)
(-0.00389856 4.20943e-05 0)
(-0.00405089 4.22719e-05 0)
(-0.00420389 4.2472e-05 0)
(-0.00435764 4.26967e-05 0)
(-0.00451221 4.29473e-05 0)
(-0.00466768 4.32248e-05 0)
(-0.00482414 4.35302e-05 0)
(-0.00498168 4.38638e-05 0)
(-0.00514039 4.42261e-05 0)
(-0.00530037 4.46173e-05 0)
(-0.00546169 4.50377e-05 0)
(-0.00562447 4.54874e-05 0)
(-0.00578879 4.59661e-05 0)
(-0.00595475 4.64734e-05 0)
(-0.00612243 4.70087e-05 0)
(-0.00629193 4.75714e-05 0)
(-0.00646332 4.81609e-05 0)
(-0.0066367 4.87762e-05 0)
(-0.00681214 4.94163e-05 0)
(-0.00698972 5.00796e-05 0)
(-0.0071695 5.07648e-05 0)
(-0.00735155 5.14702e-05 0)
(-0.00753592 5.21941e-05 0)
(-0.00772266 5.29343e-05 0)
(-0.00791182 5.36886e-05 0)
(-0.00810342 5.44545e-05 0)
(-0.00829749 5.52293e-05 0)
(-0.00849404 5.60097e-05 0)
(-0.00869306 5.67922e-05 0)
(-0.00889455 5.75732e-05 0)
(-0.00909847 5.83485e-05 0)
(-0.00930478 5.91138e-05 0)
(-0.00951343 5.98645e-05 0)
(-0.00972433 6.05952e-05 0)
(-0.00993738 6.13005e-05 0)
(-0.0101525 6.19743e-05 0)
(-0.0103695 6.26103e-05 0)
(-0.0105882 6.32015e-05 0)
(-0.0108085 6.37404e-05 0)
(-0.0110301 6.42196e-05 0)
(-0.0112528 6.46306e-05 0)
(-0.0114763 6.4965e-05 0)
(-0.0117004 6.52133e-05 0)
(-0.0119247 6.53658e-05 0)
(-0.0121487 6.54123e-05 0)
(-0.0123722 6.53423e-05 0)
(-0.0125947 6.51447e-05 0)
(-0.0128157 6.48082e-05 0)
(-0.0130347 6.43209e-05 0)
(-0.0132511 6.36705e-05 0)
(-0.0134644 6.28446e-05 0)
(-0.0136739 6.18304e-05 0)
(-0.013879 6.06152e-05 0)
(-0.0140788 5.9186e-05 0)
(-0.0142728 5.75297e-05 0)
(-0.01446 5.56335e-05 0)
(-0.0146396 5.34847e-05 0)
(-0.0148108 5.10709e-05 0)
(-0.0149726 4.83803e-05 0)
(-0.0151241 4.54019e-05 0)
(-0.0152643 4.21253e-05 0)
(-0.0153922 3.85409e-05 0)
(-0.0155068 3.46406e-05 0)
(-0.015607 3.04175e-05 0)
(-0.0156917 2.58664e-05 0)
(-0.0157599 2.09841e-05 0)
(-0.0158105 1.57693e-05 0)
(-0.0158425 1.02232e-05 0)
(-0.0158547 4.34947e-06 0)
(-0.0158461 -1.84495e-06 0)
(-0.0158158 -8.35092e-06 0)
(-0.0157627 -1.51554e-05 0)
(-0.015686 -2.22416e-05 0)
(-0.0155848 -2.95893e-05 0)
(-0.0154584 -3.71742e-05 0)
(-0.015306 -4.4968e-05 0)
(-0.0151272 -5.29383e-05 0)
(-0.0149215 -6.10482e-05 0)
(-0.0146886 -6.92568e-05 0)
(-0.0144282 -7.75185e-05 0)
(-0.0141404 -8.5784e-05 0)
(-0.0138254 -9.40001e-05 0)
(-0.0134833 -0.00010211 0)
(-0.0131149 -0.000110053 0)
(-0.0127207 -0.000117766 0)
(-0.0123018 -0.000125185 0)
(-0.0118592 -0.00013224 0)
(-0.0113943 -0.000138864 0)
(-0.0109087 -0.000144988 0)
(-0.0104042 -0.000150544 0)
(-0.00988278 -0.000155463 0)
(-0.00934667 -0.000159682 0)
(-0.00879829 -0.000163137 0)
(-0.00824024 -0.000165771 0)
(-0.00767532 -0.00016753 0)
(-0.00710645 -0.000168367 0)
(-0.00653674 -0.00016824 0)
(-0.00596936 -0.000167114 0)
(-0.00540762 -0.000164963 0)
(-0.00485487 -0.000161767 0)
(-0.00431453 -0.000157517 0)
(-0.00379001 -0.000152211 0)
(-0.0032847 -0.000145853 0)
(-0.00280198 -0.000138458 0)
(-0.00234513 -0.000130048 0)
(-0.00191734 -0.000120651 0)
(-0.00152167 -0.000110305 0)
(-0.00116102 -9.90504e-05 0)
(-0.000838093 -8.69384e-05 0)
(-0.000555353 -7.40278e-05 0)
(-0.00031498 -6.03911e-05 0)
(-0.000118787 -4.61237e-05 0)
(3.18936e-05 -3.1364e-05 0)
(0.000136405 -1.63301e-05 0)
(0.000195098 -1.40104e-06 0)
(0.000209889 1.27262e-05 0)
(0.000185115 2.47684e-05 0)
(0.000129417 3.22529e-05 0)
(6.15454e-05 3.05757e-05 0)
(1.39103e-05 1.39308e-05 0)
(9.90625e-06 -1.83444e-05 0)
(4.20777e-05 -4.16945e-05 0)
(8.87068e-05 -4.79996e-05 0)
(0.000131318 -4.11759e-05 0)
(0.000157395 -2.60231e-05 0)
(0.000159551 -5.9302e-06 0)
(0.000133164 1.68115e-05 0)
(7.56514e-05 4.06658e-05 0)
(-1.40307e-05 6.46197e-05 0)
(-0.000135828 8.80014e-05 0)
(-0.000288924 0.000110371 0)
(-0.000471983 0.000131458 0)
(-0.000683319 0.000151093 0)
(-0.000921038 0.000169188 0)
(-0.00118313 0.000185715 0)
(-0.00146753 0.000200689 0)
(-0.0017722 0.000214153 0)
(-0.00209514 0.000226171 0)
(-0.00243444 0.000236824 0)
(-0.00278827 0.000246201 0)
(-0.00315496 0.000254401 0)
(-0.00353291 0.000261523 0)
(-0.0039207 0.000267667 0)
(-0.004317 0.000272934 0)
(-0.00472064 0.00027742 0)
(-0.00513057 0.000281218 0)
(-0.00554586 0.000284417 0)
(-0.0059657 0.000287102 0)
(-0.00638939 0.00028935 0)
(-0.00681635 0.000291234 0)
(-0.00724608 0.000292821 0)
(-0.00767817 0.000294173 0)
(-0.00811231 0.000295345 0)
(-0.00854825 0.000296388 0)
(-0.00898582 0.000297347 0)
(-0.0094249 0.000298263 0)
(-0.00986543 0.000299173 0)
(-0.0103074 0.000300107 0)
(-0.0107509 0.000301094 0)
(-0.0111959 0.000302159 0)
(-0.0116426 0.000303322 0)
(-0.012091 0.000304601 0)
(-0.0125414 0.000306012 0)
(-0.012994 0.000307568 0)
(-0.0134489 0.000309279 0)
(-0.0139064 0.000311155 0)
(-0.0143666 0.000313201 0)
(-0.0148299 0.000315425 0)
(-0.0152964 0.000317829 0)
(-0.0157664 0.000320415 0)
(-0.0162402 0.000323185 0)
(-0.016718 0.000326138 0)
(-0.0172001 0.000329273 0)
(-0.0176867 0.000332587 0)
(-0.018178 0.000336077 0)
(-0.0186743 0.000339738 0)
(-0.0191758 0.000343563 0)
(-0.0196828 0.000347546 0)
(-0.0201954 0.000351678 0)
(-0.0207138 0.000355949 0)
(-0.0212382 0.000360348 0)
(-0.0217688 0.000364863 0)
(-0.0223057 0.000369479 0)
(-0.022849 0.00037418 0)
(-0.0233988 0.00037895 0)
(-0.0239552 0.00038377 0)
(-0.0245182 0.000388618 0)
(-0.0250878 0.000393473 0)
(-0.0256639 0.000398308 0)
(-0.0262466 0.000403096 0)
(-0.0268356 0.000407809 0)
(-0.0274308 0.000412414 0)
(-0.0280321 0.000416878 0)
(-0.0286391 0.000421163 0)
(-0.0292515 0.00042523 0)
(-0.029869 0.000429037 0)
(-0.0304911 0.00043254 0)
(-0.0311173 0.00043569 0)
(-0.031747 0.000438437 0)
(-0.0323797 0.000440728 0)
(-0.0330144 0.000442506 0)
(-0.0336505 0.000443712 0)
(-0.0342871 0.000444284 0)
(-0.0349231 0.000444156 0)
(-0.0355574 0.000443262 0)
(-0.036189 0.00044153 0)
(-0.0368164 0.000438889 0)
(-0.0374384 0.000435264 0)
(-0.0380533 0.000430577 0)
(-0.0386597 0.00042475 0)
(-0.0392558 0.000417704 0)
(-0.0398398 0.000409357 0)
(-0.0404098 0.00039963 0)
(-0.0409637 0.00038844 0)
(-0.0414993 0.000375709 0)
(-0.0420145 0.000361357 0)
(-0.0425068 0.000345308 0)
(-0.0429739 0.00032749 0)
(-0.043413 0.000307832 0)
(-0.0438217 0.000286272 0)
(-0.0441971 0.00026275 0)
(-0.0445365 0.000237217 0)
(-0.0448371 0.00020963 0)
(-0.045096 0.000179957 0)
(-0.0453102 0.000148177 0)
(-0.0454768 0.000114282 0)
(-0.0455929 7.82769e-05 0)
(-0.0456557 4.01833e-05 0)
(-0.0456622 3.96123e-08 0)
(-0.0456098 -4.20972e-05 0)
(-0.0454957 -8.6151e-05 0)
(-0.0453175 -0.000132024 0)
(-0.0450728 -0.000179596 0)
(-0.0447594 -0.000228724 0)
(-0.0443753 -0.000279238 0)
(-0.043919 -0.000330947 0)
(-0.043389 -0.000383631 0)
(-0.0427842 -0.000437047 0)
(-0.0421039 -0.000490923 0)
(-0.0413479 -0.000544965 0)
(-0.0405162 -0.000598852 0)
(-0.0396095 -0.000652244 0)
(-0.0386288 -0.000704776 0)
(-0.0375757 -0.000756065 0)
(-0.0364523 -0.000805713 0)
(-0.0352613 -0.000853309 0)
(-0.034006 -0.00089843 0)
(-0.0326901 -0.000940651 0)
(-0.0313182 -0.000979543 0)
(-0.0298951 -0.00101468 0)
(-0.0284266 -0.00104565 0)
(-0.0269186 -0.00107206 0)
(-0.0253778 -0.00109352 0)
(-0.0238113 -0.00110967 0)
(-0.0222268 -0.00112019 0)
(-0.0206324 -0.00112479 0)
(-0.0190362 -0.00112322 0)
(-0.0174471 -0.00111528 0)
(-0.015874 -0.0011008 0)
(-0.014326 -0.00107967 0)
(-0.0128123 -0.00105186 0)
(-0.0113421 -0.00101735 0)
(-0.00992452 -0.000976212 0)
(-0.0085687 -0.000928555 0)
(-0.00728339 -0.000874554 0)
(-0.0060771 -0.000814444 0)
(-0.00495792 -0.00074852 0)
(-0.00393343 -0.000677146 0)
(-0.00301057 -0.000600766 0)
(-0.00219551 -0.000519925 0)
(-0.00149347 -0.000435305 0)
(-0.000908442 -0.000347792 0)
(-0.000442829 -0.000258588 0)
(-9.69335e-05 -0.000169399 0)
(0.000131861 -8.27798e-05 0)
(0.000250289 -2.68319e-06 0)
(0.00027069 6.46319e-05 0)
(0.000213493 0.000109129 0)
(0.000114723 0.000114974 0)
(3.03928e-05 6.14235e-05 0)
(1.21684e-05 -4.44233e-05 0)
(4.84662e-05 -8.85801e-05 0)
(9.56192e-05 -9.50229e-05 0)
(0.000130818 -7.33773e-05 0)
(0.000138918 -3.24905e-05 0)
(0.000110462 2.07035e-05 0)
(3.91297e-05 8.10811e-05 0)
(-7.88839e-05 0.000144944 0)
(-0.000245335 0.00020967 0)
(-0.000460439 0.000273425 0)
(-0.000723279 0.000334941 0)
(-0.00103212 0.000393369 0)
(-0.00138467 0.000448162 0)
(-0.00177825 0.000499 0)
(-0.00220997 0.000545731 0)
(-0.0026768 0.000588327 0)
(-0.00317571 0.000626859 0)
(-0.00370371 0.000661461 0)
(-0.0042579 0.000692318 0)
(-0.0048355 0.000719652 0)
(-0.00543391 0.000743707 0)
(-0.0060507 0.000764741 0)
(-0.0066836 0.000783018 0)
(-0.00733056 0.000798804 0)
(-0.00798973 0.000812359 0)
(-0.00865942 0.000823936 0)
(-0.00933816 0.00083378 0)
(-0.0100246 0.000842123 0)
(-0.0107177 0.00084918 0)
(-0.0114165 0.000855155 0)
(-0.0121201 0.000860238 0)
(-0.0128278 0.000864603 0)
(-0.0135391 0.000868407 0)
(-0.0142537 0.000871796 0)
(-0.0149711 0.0008749 0)
(-0.0156911 0.000877835 0)
(-0.0164137 0.000880708 0)
(-0.0171388 0.00088361 0)
(-0.0178663 0.000886624 0)
(-0.0185965 0.000889823 0)
(-0.0193294 0.000893268 0)
(-0.0200652 0.000897013 0)
(-0.0208041 0.000901105 0)
(-0.0215465 0.000905581 0)
(-0.0222926 0.000910476 0)
(-0.0230427 0.000915815 0)
(-0.0237972 0.000921619 0)
(-0.0245564 0.000927906 0)
(-0.0253207 0.000934687 0)
(-0.0260905 0.000941968 0)
(-0.0268661 0.000949753 0)
(-0.027648 0.000958041 0)
(-0.0284365 0.000966829 0)
(-0.029232 0.000976108 0)
(-0.0300348 0.000985867 0)
(-0.0308454 0.000996092 0)
(-0.031664 0.00100676 0)
(-0.032491 0.00101786 0)
(-0.0333266 0.00102936 0)
(-0.0341713 0.00104123 0)
(-0.0350251 0.00105343 0)
(-0.0358884 0.00106593 0)
(-0.0367614 0.00107868 0)
(-0.0376441 0.00109165 0)
(-0.0385367 0.00110477 0)
(-0.0394393 0.00111799 0)
(-0.0403519 0.00113126 0)
(-0.0412744 0.00114449 0)
(-0.0422068 0.00115761 0)
(-0.0431488 0.00117055 0)
(-0.0441003 0.00118322 0)
(-0.045061 0.00119553 0)
(-0.0460304 0.00120737 0)
(-0.0470082 0.00121864 0)
(-0.0479937 0.00122922 0)
(-0.0489863 0.00123899 0)
(-0.0499853 0.00124783 0)
(-0.0509897 0.00125558 0)
(-0.0519987 0.00126212 0)
(-0.053011 0.00126728 0)
(-0.0540256 0.0012709 0)
(-0.055041 0.00127281 0)
(-0.0560557 0.00127283 0)
(-0.0570682 0.00127079 0)
(-0.0580766 0.00126649 0)
(-0.059079 0.00125973 0)
(-0.0600734 0.00125031 0)
(-0.0610574 0.00123801 0)
(-0.0620286 0.00122263 0)
(-0.0629845 0.00120394 0)
(-0.0639224 0.00118173 0)
(-0.0648392 0.00115577 0)
(-0.0657319 0.00112584 0)
(-0.0665973 0.00109171 0)
(-0.067432 0.00105318 0)
(-0.0682323 0.00101003 0)
(-0.0689945 0.000962051 0)
(-0.0697147 0.000909055 0)
(-0.070389 0.000850859 0)
(-0.0710132 0.000787296 0)
(-0.071583 0.000718218 0)
(-0.0720941 0.000643498 0)
(-0.072542 0.000563036 0)
(-0.0729224 0.000476759 0)
(-0.0732307 0.000384626 0)
(-0.0734624 0.000286633 0)
(-0.0736131 0.000182816 0)
(-0.0736783 7.32531e-05 0)
(-0.0736537 -4.19275e-05 0)
(-0.0735351 -0.000162548 0)
(-0.0733186 -0.000288373 0)
(-0.0730003 -0.000419113 0)
(-0.0725768 -0.000554413 0)
(-0.0720448 -0.000693855 0)
(-0.0714015 -0.000836955 0)
(-0.0706445 -0.000983161 0)
(-0.0697717 -0.00113185 0)
(-0.0687819 -0.00128233 0)
(-0.0676739 -0.00143385 0)
(-0.0664477 -0.00158557 0)
(-0.0651036 -0.00173661 0)
(-0.0636426 -0.00188602 0)
(-0.0620667 -0.00203278 0)
(-0.0603785 -0.00217585 0)
(-0.0585814 -0.00231412 0)
(-0.0566798 -0.00244647 0)
(-0.0546789 -0.00257174 0)
(-0.0525846 -0.00268875 0)
(-0.050404 -0.00279635 0)
(-0.0481449 -0.00289339 0)
(-0.0458159 -0.00297872 0)
(-0.0434265 -0.00305127 0)
(-0.0409871 -0.00310999 0)
(-0.0385087 -0.00315393 0)
(-0.0360031 -0.00318221 0)
(-0.0334825 -0.00319403 0)
(-0.0309601 -0.00318874 0)
(-0.0284491 -0.00316577 0)
(-0.0259632 -0.0031247 0)
(-0.0235164 -0.00306527 0)
(-0.0211229 -0.00298735 0)
(-0.0187967 -0.00289096 0)
(-0.016552 -0.00277629 0)
(-0.0144024 -0.00264372 0)
(-0.0123615 -0.00249376 0)
(-0.0104421 -0.00232715 0)
(-0.00865638 -0.00214478 0)
(-0.0070157 -0.00194779 0)
(-0.00553032 -0.00173757 0)
(-0.0042092 -0.00151585 0)
(-0.00305967 -0.00128477 0)
(-0.00208705 -0.00104709 0)
(-0.0012941 -0.000806439 0)
(-0.000680282 -0.000567771 0)
(-0.000240772 -0.000338014 0)
(3.49135e-05 -0.000127109 0)
(0.000164422 5.0497e-05 0)
(0.000174706 0.000173944 0)
(0.000108981 0.00021364 0)
(3.19426e-05 0.000128884 0)
(1.13578e-05 -7.11749e-05 0)
(4.1935e-05 -0.000131643 0)
(7.43773e-05 -0.000130377 0)
(8.47301e-05 -8.38615e-05 0)
(5.68784e-05 -5.49905e-06 0)
(-1.95811e-05 9.39855e-05 0)
(-0.00015179 0.000206313 0)
(-0.000344187 0.000325276 0)
(-0.000598941 0.000446289 0)
(-0.000916433 0.000566021 0)
(-0.00129569 0.000682092 0)
(-0.0017347 0.000792846 0)
(-0.00223075 0.000897178 0)
(-0.00278057 0.000994399 0)
(-0.00338061 0.00108414 0)
(-0.00402711 0.00116629 0)
(-0.00471624 0.00124089 0)
(-0.0054442 0.00130816 0)
(-0.00620729 0.0013684 0)
(-0.00700193 0.00142199 0)
(-0.00782474 0.00146935 0)
(-0.00867254 0.00151095 0)
(-0.00954239 0.00154727 0)
(-0.0104316 0.00157879 0)
(-0.0113376 0.001606 0)
(-0.0122583 0.00162937 0)
(-0.0131916 0.00164936 0)
(-0.0141358 0.0016664 0)
(-0.0150894 0.0016809 0)
(-0.016051 0.00169326 0)
(-0.0170196 0.00170383 0)
(-0.0179941 0.00171295 0)
(-0.0189738 0.00172091 0)
(-0.0199581 0.00172801 0)
(-0.0209466 0.0017345 0)
(-0.0219388 0.0017406 0)
(-0.0229347 0.00174651 0)
(-0.0239341 0.00175243 0)
(-0.0249369 0.00175851 0)
(-0.0259433 0.0017649 0)
(-0.0269535 0.00177171 0)
(-0.0279676 0.00177906 0)
(-0.0289859 0.00178703 0)
(-0.0300088 0.00179571 0)
(-0.0310365 0.00180517 0)
(-0.0320696 0.00181544 0)
(-0.0331085 0.00182659 0)
(-0.0341535 0.00183864 0)
(-0.0352052 0.00185161 0)
(-0.0362641 0.00186552 0)
(-0.0373305 0.00188037 0)
(-0.0384051 0.00189617 0)
(-0.0394884 0.00191291 0)
(-0.0405807 0.00193056 0)
(-0.0416825 0.00194912 0)
(-0.0427943 0.00196854 0)
(-0.0439166 0.0019888 0)
(-0.0450497 0.00200984 0)
(-0.0461941 0.00203161 0)
(-0.04735 0.00205406 0)
(-0.0485177 0.00207712 0)
(-0.0496976 0.0021007 0)
(-0.0508899 0.00212473 0)
(-0.0520947 0.00214911 0)
(-0.0533121 0.00217373 0)
(-0.0545422 0.00219849 0)
(-0.0557849 0.00222326 0)
(-0.0570401 0.00224789 0)
(-0.0583078 0.00227225 0)
(-0.0595875 0.00229618 0)
(-0.060879 0.0023195 0)
(-0.0621817 0.00234203 0)
(-0.0634952 0.00236357 0)
(-0.0648186 0.00238391 0)
(-0.0661513 0.00240282 0)
(-0.0674922 0.00242007 0)
(-0.0688403 0.0024354 0)
(-0.0701944 0.00244853 0)
(-0.071553 0.0024592 0)
(-0.0729147 0.00246709 0)
(-0.0742777 0.00247189 0)
(-0.0756402 0.00247328 0)
(-0.0770001 0.00247092 0)
(-0.0783551 0.00246445 0)
(-0.0797028 0.00245349 0)
(-0.0810406 0.00243768 0)
(-0.0823655 0.00241662 0)
(-0.0836745 0.0023899 0)
(-0.0849644 0.00235714 0)
(-0.0862317 0.0023179 0)
(-0.0874725 0.00227177 0)
(-0.0886831 0.00221834 0)
(-0.0898592 0.00215719 0)
(-0.0909965 0.0020879 0)
(-0.0920904 0.00201007 0)
(-0.0931362 0.00192331 0)
(-0.0941289 0.00182724 0)
(-0.0950633 0.00172152 0)
(-0.0959342 0.0016058 0)
(-0.0967361 0.00147979 0)
(-0.0974634 0.00134324 0)
(-0.0981104 0.00119592 0)
(-0.0986714 0.00103766 0)
(-0.0991405 0.000868344 0)
(-0.0995119 0.000687932 0)
(-0.0997797 0.000496438 0)
(-0.0999383 0.000293957 0)
(-0.0999818 8.06692e-05 0)
(-0.0999049 -0.000143155 0)
(-0.0997021 -0.000377147 0)
(-0.0993684 -0.000620836 0)
(-0.098899 -0.000873639 0)
(-0.0982895 -0.00113486 0)
(-0.0975359 -0.00140368 0)
(-0.0966346 -0.00167915 0)
(-0.0955829 -0.00196021 0)
(-0.0943782 -0.00224566 0)
(-0.093019 -0.00253418 0)
(-0.0915042 -0.00282432 0)
(-0.0898339 -0.00311449 0)
(-0.0880087 -0.00340301 0)
(-0.0860303 -0.00368809 0)
(-0.0839013 -0.0039678 0)
(-0.0816254 -0.00424017 0)
(-0.0792074 -0.00450312 0)
(-0.0766529 -0.00475453 0)
(-0.0739689 -0.00499224 0)
(-0.0711635 -0.00521405 0)
(-0.0682458 -0.00541778 0)
(-0.0652261 -0.00560127 0)
(-0.0621158 -0.00576242 0)
(-0.0589273 -0.00589919 0)
(-0.0556741 -0.00600965 0)
(-0.0523705 -0.00609201 0)
(-0.0490319 -0.00614463 0)
(-0.0456743 -0.00616606 0)
(-0.0423146 -0.00615504 0)
(-0.03897 -0.00611055 0)
(-0.0356584 -0.00603184 0)
(-0.0323978 -0.0059184 0)
(-0.0292065 -0.00577003 0)
(-0.0261028 -0.0055868 0)
(-0.0231048 -0.00536914 0)
(-0.0202303 -0.00511776 0)
(-0.0174964 -0.00483376 0)
(-0.0149198 -0.00451858 0)
(-0.012516 -0.00417405 0)
(-0.0102993 -0.00380249 0)
(-0.00828273 -0.0034067 0)
(-0.00647727 -0.00299018 0)
(-0.00489187 -0.00255723 0)
(-0.00353276 -0.00211332 0)
(-0.00240284 -0.00166548 0)
(-0.00150095 -0.00122297 0)
(-0.000820764 -0.000798243 0)
(-0.000349623 -0.000408314 0)
(-6.71083e-05 -7.66508e-05 0)
(5.66827e-05 0.000164643 0)
(6.62657e-05 0.000272134 0)
(2.4619e-05 0.000184445 0)
(8.78978e-06 -9.18088e-05 0)
(2.68965e-05 -0.000158204 0)
(3.32145e-05 -0.000138468 0)
(5.29527e-06 -5.58808e-05 0)
(-7.25936e-05 7.15303e-05 0)
(-0.000211016 0.000229254 0)
(-0.000417276 0.000405858 0)
(-0.000695946 0.000592539 0)
(-0.00104928 0.000782627 0)
(-0.00147765 0.000971138 0)
(-0.00197995 0.00115442 0)
(-0.00255394 0.00132986 0)
(-0.00319652 0.00149567 0)
(-0.00390401 0.00165069 0)
(-0.00467229 0.00179426 0)
(-0.00549701 0.0019261 0)
(-0.00637373 0.00204624 0)
(-0.00729797 0.00215491 0)
(-0.00826536 0.00225256 0)
(-0.00927167 0.00233971 0)
(-0.0103129 0.00241701 0)
(-0.0113851 0.00248515 0)
(-0.0124849 0.00254487 0)
(-0.0136089 0.0025969 0)
(-0.0147541 0.002642 0)
(-0.0159178 0.0026809 0)
(-0.0170976 0.00271432 0)
(-0.0182913 0.00274294 0)
(-0.0194971 0.00276742 0)
(-0.0207131 0.00278836 0)
(-0.0219381 0.00280635 0)
(-0.0231708 0.00282191 0)
(-0.0244103 0.00283553 0)
(-0.0256558 0.00284767 0)
(-0.0269066 0.00285873 0)
(-0.0281623 0.00286908 0)
(-0.0294227 0.00287906 0)
(-0.0306875 0.00288896 0)
(-0.0319567 0.00289905 0)
(-0.0332303 0.00290955 0)
(-0.0345086 0.00292068 0)
(-0.0357916 0.0029326 0)
(-0.0370799 0.00294548 0)
(-0.0383736 0.00295943 0)
(-0.0396733 0.00297458 0)
(-0.0409793 0.002991 0)
(-0.0422923 0.00300877 0)
(-0.0436126 0.00302795 0)
(-0.044941 0.00304857 0)
(-0.0462778 0.00307065 0)
(-0.0476237 0.00309422 0)
(-0.0489793 0.00311927 0)
(-0.0503451 0.00314578 0)
(-0.0517218 0.00317373 0)
(-0.0531097 0.00320307 0)
(-0.0545095 0.00323377 0)
(-0.0559217 0.00326576 0)
(-0.0573466 0.00329895 0)
(-0.0587848 0.00333327 0)
(-0.0602367 0.00336862 0)
(-0.0617025 0.00340487 0)
(-0.0631826 0.00344191 0)
(-0.0646772 0.00347959 0)
(-0.0661864 0.00351775 0)
(-0.0677103 0.00355622 0)
(-0.069249 0.00359481 0)
(-0.0708023 0.00363332 0)
(-0.07237 0.00367152 0)
(-0.0739519 0.00370916 0)
(-0.0755476 0.00374599 0)
(-0.0771565 0.00378172 0)
(-0.0787781 0.00381605 0)
(-0.0804115 0.00384865 0)
(-0.0820558 0.00387918 0)
(-0.08371 0.00390727 0)
(-0.0853728 0.00393253 0)
(-0.0870428 0.00395455 0)
(-0.0887184 0.00397288 0)
(-0.0903979 0.00398707 0)
(-0.0920792 0.00399664 0)
(-0.0937602 0.00400107 0)
(-0.0954385 0.00399985 0)
(-0.0971115 0.00399241 0)
(-0.0987763 0.0039782 0)
(-0.10043 0.00395663 0)
(-0.102069 0.00392708 0)
(-0.10369 0.00388894 0)
(-0.105289 0.00384157 0)
(-0.106861 0.00378433 0)
(-0.108404 0.00371656 0)
(-0.109911 0.0036376 0)
(-0.111379 0.00354681 0)
(-0.112802 0.00344353 0)
(-0.114174 0.00332711 0)
(-0.11549 0.00319693 0)
(-0.116745 0.00305239 0)
(-0.117932 0.0028929 0)
(-0.119045 0.00271793 0)
(-0.120077 0.00252699 0)
(-0.121023 0.00231961 0)
(-0.121875 0.00209543 0)
(-0.122626 0.00185412 0)
(-0.123269 0.00159545 0)
(-0.123798 0.00131928 0)
(-0.124206 0.00102556 0)
(-0.124485 0.000714362 0)
(-0.124629 0.000385878 0)
(-0.124631 4.0433e-05 0)
(-0.124484 -0.000321506 0)
(-0.124183 -0.000699316 0)
(-0.123721 -0.00109221 0)
(-0.123093 -0.00149923 0)
(-0.122294 -0.00191923 0)
(-0.121319 -0.0023509 0)
(-0.120164 -0.00279269 0)
(-0.118826 -0.00324291 0)
(-0.117303 -0.00369963 0)
(-0.115592 -0.00416073 0)
(-0.113692 -0.00462392 0)
(-0.111605 -0.00508669 0)
(-0.10933 -0.00554637 0)
(-0.10687 -0.00600011 0)
(-0.104229 -0.00644491 0)
(-0.101412 -0.00687763 0)
(-0.0984229 -0.00729504 0)
(-0.0952702 -0.00769378 0)
(-0.091962 -0.00807047 0)
(-0.0885082 -0.00842169 0)
(-0.0849197 -0.00874401 0)
(-0.0812091 -0.00903406 0)
(-0.07739 -0.00928855 0)
(-0.0734773 -0.0095043 0)
(-0.0694872 -0.00967832 0)
(-0.0654369 -0.0098078 0)
(-0.0613447 -0.00989019 0)
(-0.0572298 -0.00992322 0)
(-0.0531123 -0.00990495 0)
(-0.0490128 -0.00983381 0)
(-0.0449526 -0.00970861 0)
(-0.0409531 -0.0095286 0)
(-0.0370362 -0.00929349 0)
(-0.0332237 -0.00900346 0)
(-0.029537 -0.00865921 0)
(-0.0259972 -0.00826197 0)
(-0.0226248 -0.00781352 0)
(-0.0194393 -0.00731626 0)
(-0.0164591 -0.00677326 0)
(-0.013701 -0.0061883 0)
(-0.01118 -0.00556607 0)
(-0.00890905 -0.00491227 0)
(-0.0068983 -0.00423393 0)
(-0.00515477 -0.00353982 0)
(-0.00368166 -0.00284098 0)
(-0.00247759 -0.00215158 0)
(-0.0015357 -0.00149005 0)
(-0.000842582 -0.000880674 0)
(-0.000377103 -0.000355718 0)
(-0.000108985 4.22423e-05 0)
(3.28603e-06 0.000257245 0)
(1.32163e-05 0.00021049 0)
(5.2709e-06 -0.000102898 0)
(6.46707e-06 -0.000160395 0)
(-2.16272e-05 -0.000108943 0)
(-9.80041e-05 2.22487e-05 0)
(-0.00023692 0.000210818 0)
(-0.000448474 0.000438648 0)
(-0.000739611 0.000691262 0)
(-0.00111461 0.000957316 0)
(-0.0015755 0.00122804 0)
(-0.00212244 0.00149675 0)
(-0.00275408 0.00175845 0)
(-0.00346789 0.0020095 0)
(-0.00426043 0.00224733 0)
(-0.0051276 0.00247024 0)
(-0.00606483 0.00267722 0)
(-0.00706728 0.0028678 0)
(-0.00812997 0.00304192 0)
(-0.00924788 0.00319987 0)
(-0.0104161 0.00334217 0)
(-0.0116298 0.00346954 0)
(-0.0128843 0.00358284 0)
(-0.0141755 0.00368302 0)
(-0.0154991 0.00377108 0)
(-0.0168514 0.00384806 0)
(-0.0182289 0.00391501 0)
(-0.0196285 0.00397296 0)
(-0.0210473 0.00402292 0)
(-0.0224828 0.00406585 0)
(-0.0239327 0.0041027 0)
(-0.0253951 0.00413433 0)
(-0.0268684 0.00416158 0)
(-0.028351 0.0041852 0)
(-0.0298418 0.0042059 0)
(-0.0313399 0.00422434 0)
(-0.0328445 0.0042411 0)
(-0.034355 0.00425672 0)
(-0.0358709 0.0042717 0)
(-0.0373922 0.00428646 0)
(-0.0389187 0.00430139 0)
(-0.0404503 0.00431683 0)
(-0.0419873 0.00433308 0)
(-0.0435298 0.00435041 0)
(-0.0450782 0.00436904 0)
(-0.0466329 0.00438915 0)
(-0.0481944 0.00441092 0)
(-0.049763 0.00443448 0)
(-0.0513394 0.00445992 0)
(-0.0529242 0.00448735 0)
(-0.054518 0.0045168 0)
(-0.0561213 0.00454832 0)
(-0.0577349 0.00458193 0)
(-0.0593593 0.00461762 0)
(-0.0609953 0.00465538 0)
(-0.0626433 0.00469516 0)
(-0.064304 0.0047369 0)
(-0.065978 0.00478053 0)
(-0.0676659 0.00482596 0)
(-0.069368 0.00487307 0)
(-0.071085 0.00492173 0)
(-0.0728171 0.00497179 0)
(-0.0745648 0.00502308 0)
(-0.0763284 0.0050754 0)
(-0.0781079 0.00512854 0)
(-0.0799037 0.00518228 0)
(-0.0817156 0.00523635 0)
(-0.0835437 0.00529046 0)
(-0.0853878 0.00534432 0)
(-0.0872476 0.00539758 0)
(-0.0891227 0.00544989 0)
(-0.0910125 0.00550085 0)
(-0.0929164 0.00555005 0)
(-0.0948336 0.00559705 0)
(-0.0967631 0.00564135 0)
(-0.0987036 0.00568247 0)
(-0.100654 0.00571984 0)
(-0.102613 0.00575291 0)
(-0.104578 0.00578106 0)
(-0.106547 0.00580367 0)
(-0.108519 0.00582004 0)
(-0.110491 0.0058295 0)
(-0.112461 0.00583129 0)
(-0.114424 0.00582466 0)
(-0.11638 0.0058088 0)
(-0.118323 0.00578291 0)
(-0.12025 0.00574614 0)
(-0.122158 0.0056976 0)
(-0.124041 0.00563641 0)
(-0.125897 0.00556167 0)
(-0.127718 0.00547246 0)
(-0.129502 0.00536783 0)
(-0.131242 0.00524688 0)
(-0.132932 0.00510866 0)
(-0.134567 0.00495225 0)
(-0.13614 0.00477677 0)
(-0.137645 0.00458133 0)
(-0.139075 0.00436508 0)
(-0.140423 0.00412725 0)
(-0.141682 0.00386707 0)
(-0.142845 0.00358387 0)
(-0.143903 0.00327706 0)
(-0.14485 0.00294612 0)
(-0.145677 0.00259064 0)
(-0.146376 0.00221034 0)
(-0.146941 0.00180505 0)
(-0.147361 0.00137477 0)
(-0.147631 0.000919634 0)
(-0.147742 0.000439979 0)
(-0.147686 -6.36853e-05 0)
(-0.147457 -0.000590637 0)
(-0.147048 -0.00113994 0)
(-0.146451 -0.00171042 0)
(-0.14566 -0.00230065 0)
(-0.144671 -0.00290898 0)
(-0.143478 -0.00353346 0)
(-0.142077 -0.00417189 0)
(-0.140464 -0.00482179 0)
(-0.138636 -0.00548039 0)
(-0.136592 -0.00614466 0)
(-0.134332 -0.00681131 0)
(-0.131854 -0.00747675 0)
(-0.129162 -0.00813717 0)
(-0.126258 -0.00878853 0)
(-0.123145 -0.00942656 0)
(-0.119829 -0.0100468 0)
(-0.116318 -0.0106447 0)
(-0.112619 -0.0112154 0)
(-0.108742 -0.0117543 0)
(-0.104698 -0.0122564 0)
(-0.100501 -0.012717 0)
(-0.0961635 -0.0131312 0)
(-0.0917021 -0.0134944 0)
(-0.0871337 -0.0138022 0)
(-0.0824766 -0.0140502 0)
(-0.0777504 -0.0142347 0)
(-0.072976 -0.0143519 0)
(-0.0681752 -0.0143987 0)
(-0.0633708 -0.0143723 0)
(-0.0585862 -0.0142706 0)
(-0.0538456 -0.0140918 0)
(-0.0491734 -0.013835 0)
(-0.0445942 -0.0134997 0)
(-0.0401329 -0.0130863 0)
(-0.0358138 -0.0125959 0)
(-0.0316607 -0.0120302 0)
(-0.0276968 -0.0113919 0)
(-0.0239443 -0.0106845 0)
(-0.0204237 -0.00991262 0)
(-0.017154 -0.00908177 0)
(-0.0141522 -0.0081988 0)
(-0.0114326 -0.00727204 0)
(-0.00900666 -0.00631164 0)
(-0.00688222 -0.00533005 0)
(-0.00506309 -0.00434269 0)
(-0.00354828 -0.0033689 0)
(-0.00233124 -0.00243316 0)
(-0.00139912 -0.0015668 0)
(-0.000731699 -0.000810177 0)
(-0.000300312 -0.000215073 0)
(-6.94344e-05 0.000152121 0)
(3.08435e-07 0.000199899 0)
(1.2521e-06 -0.000102346 0)
(-1.73223e-05 -0.00013274 0)
(-8.56744e-05 -3.41055e-05 0)
(-0.000218063 0.000159553 0)
(-0.00042646 0.000422042 0)
(-0.000719995 0.000731961 0)
(-0.00110481 0.00107201 0)
(-0.00158454 0.00142844 0)
(-0.00216069 0.00179045 0)
(-0.002833 0.0021497 0)
(-0.00359975 0.00249984 0)
(-0.00445801 0.00283617 0)
(-0.00540397 0.00315532 0)
(-0.00643313 0.00345502 0)
(-0.0075405 0.00373386 0)
(-0.00872078 0.00399114 0)
(-0.00996854 0.00422672 0)
(-0.0112783 0.0044409 0)
(-0.0126446 0.0046343 0)
(-0.0140622 0.00480783 0)
(-0.015526 0.00496256 0)
(-0.0170312 0.00509971 0)
(-0.0185733 0.00522058 0)
(-0.0201481 0.00532653 0)
(-0.0217516 0.00541891 0)
(-0.0233804 0.0054991 0)
(-0.0250313 0.00556843 0)
(-0.0267013 0.00562818 0)
(-0.028388 0.00567959 0)
(-0.0300891 0.00572384 0)
(-0.0318027 0.00576202 0)
(-0.0335271 0.00579517 0)
(-0.035261 0.00582423 0)
(-0.0370033 0.00585009 0)
(-0.038753 0.00587355 0)
(-0.0405094 0.00589533 0)
(-0.0422721 0.0059161 0)
(-0.0440408 0.00593646 0)
(-0.0458152 0.00595692 0)
(-0.0475954 0.00597795 0)
(-0.0493815 0.00599998 0)
(-0.0511737 0.00602335 0)
(-0.0529723 0.00604838 0)
(-0.0547777 0.00607533 0)
(-0.0565905 0.00610443 0)
(-0.058411 0.00613586 0)
(-0.0602399 0.00616977 0)
(-0.0620779 0.00620627 0)
(-0.0639255 0.00624544 0)
(-0.0657835 0.00628734 0)
(-0.0676525 0.00633199 0)
(-0.0695332 0.00637937 0)
(-0.0714263 0.00642948 0)
(-0.0733324 0.00648223 0)
(-0.0752521 0.00653757 0)
(-0.0771862 0.00659537 0)
(-0.0791351 0.00665551 0)
(-0.0810994 0.00671782 0)
(-0.0830796 0.00678213 0)
(-0.085076 0.00684822 0)
(-0.087089 0.00691585 0)
(-0.089119 0.00698475 0)
(-0.0911659 0.00705463 0)
(-0.09323 0.00712516 0)
(-0.0953112 0.00719598 0)
(-0.0974094 0.0072667 0)
(-0.0995243 0.00733689 0)
(-0.101656 0.00740608 0)
(-0.103803 0.00747379 0)
(-0.105965 0.00753946 0)
(-0.108141 0.00760254 0)
(-0.110331 0.00766239 0)
(-0.112533 0.00771837 0)
(-0.114745 0.00776977 0)
(-0.116966 0.00781586 0)
(-0.119195 0.00785585 0)
(-0.121429 0.00788892 0)
(-0.123665 0.00791419 0)
(-0.125902 0.00793077 0)
(-0.128137 0.00793768 0)
(-0.130366 0.00793395 0)
(-0.132586 0.00791852 0)
(-0.134793 0.00789035 0)
(-0.136984 0.00784831 0)
(-0.139154 0.00779127 0)
(-0.141299 0.00771807 0)
(-0.143414 0.00762751 0)
(-0.145494 0.00751837 0)
(-0.147533 0.00738945 0)
(-0.149526 0.0072395 0)
(-0.151465 0.0070673 0)
(-0.153346 0.00687161 0)
(-0.155161 0.00665124 0)
(-0.156904 0.006405 0)
(-0.158566 0.00613174 0)
(-0.160141 0.00583039 0)
(-0.16162 0.00549989 0)
(-0.162996 0.00513932 0)
(-0.164261 0.00474779 0)
(-0.165405 0.00432455 0)
(-0.166421 0.00386898 0)
(-0.167299 0.00338059 0)
(-0.168032 0.00285903 0)
(-0.16861 0.00230417 0)
(-0.169026 0.00171604 0)
(-0.169269 0.0010949 0)
(-0.169332 0.00044125 0)
(-0.169207 -0.000244162 0)
(-0.168886 -0.000960312 0)
(-0.168361 -0.00170589 0)
(-0.167625 -0.00247927 0)
(-0.166672 -0.00327852 0)
(-0.165496 -0.00410134 0)
(-0.164091 -0.00494513 0)
(-0.162453 -0.00580689 0)
(-0.160579 -0.00668328 0)
(-0.158464 -0.0075706 0)
(-0.156109 -0.00846478 0)
(-0.153512 -0.00936142 0)
(-0.150673 -0.0102557 0)
(-0.147596 -0.0111427 0)
(-0.144282 -0.0120168 0)
(-0.140737 -0.0128725 0)
(-0.136967 -0.0137039 0)
(-0.132979 -0.0145049 0)
(-0.128783 -0.0152691 0)
(-0.12439 -0.0159904 0)
(-0.119811 -0.0166622 0)
(-0.115062 -0.0172782 0)
(-0.110158 -0.017832 0)
(-0.105115 -0.0183177 0)
(-0.0999534 -0.0187291 0)
(-0.0946928 -0.0190609 0)
(-0.0893549 -0.0193076 0)
(-0.0839626 -0.0194646 0)
(-0.0785399 -0.0195277 0)
(-0.0731117 -0.0194933 0)
(-0.067704 -0.0193583 0)
(-0.0623433 -0.0191208 0)