/*--------------------------------*- C++ -*----------------------------------*\
  =========                 |
  \\      /  F ield         | OpenFOAM: The Open Source CFD Toolbox
   \\    /   O peration     | Website:  https://openfoam.org
    \\  /    A nd           | Version:  7
     \\/     M anipulation  |
\*---------------------------------------------------------------------------*/
FoamFile
{
    version     2.0;
    format      ascii;
    class       volScalarField;
    location    "0.05";
    object      p;
}
// * * * * * * * * * * * * * * * * * * * * * * * * * * * * * * * * * * * * * //

dimensions      [0 2 -2 0 0 0 0];

internalField   nonuniform List<scalar> 
12800
(
-4.68544e-08
0.000204041
-0.000864582
-0.00326833
-0.00677027
-0.0111327
-0.0161263
-0.0215389
-0.0271851
-0.0329065
-0.0385678
-0.044054
-0.0492685
-0.054129
-0.0585678
-0.0625292
-0.0659671
-0.0688451
-0.0711342
-0.072812
-0.073863
-0.0742767
-0.0740465
-0.0731708
-0.0716518
-0.0694939
-0.0667046
-0.0632937
-0.0592725
-0.0546547
-0.0494554
-0.0436908
-0.0373778
-0.0305333
-0.0231751
-0.0153213
-0.00699109
0.00179657
0.0110228
0.020669
0.0307172
0.0411496
0.0519486
0.0630967
0.0745769
0.0863729
0.0984692
0.110851
0.123503
0.136412
0.149563
0.162945
0.176546
0.190353
0.204357
0.218546
0.232912
0.247445
0.262136
0.276979
0.291965
0.307087
0.32234
0.337716
0.35321
0.368818
0.384533
0.400352
0.416271
0.432286
0.448393
0.46459
0.480874
0.497241
0.51369
0.530218
0.546822
0.563502
0.580253
0.597074
0.613963
0.630917
0.647935
0.665013
0.682149
0.699341
0.716586
0.73388
0.75122
0.768603
0.786025
0.80348
0.820964
0.838471
0.855995
0.873529
0.891064
0.908594
0.92611
0.943602
0.961059
0.978471
0.995826
1.01311
1.03031
1.04741
1.0644
1.08126
1.09798
1.11452
1.13088
1.14704
1.16297
1.17864
1.19405
1.20916
1.22394
1.23838
1.25244
1.2661
1.27932
1.29209
1.30438
1.31615
1.32737
1.33802
1.34807
1.35749
1.36626
1.37435
1.38173
1.38838
1.39429
1.39943
1.40379
1.40735
1.41011
1.41205
1.41319
1.41351
1.41304
1.41178
1.40975
1.40698
1.40351
1.39939
1.39467
1.38941
1.38371
1.37765
1.37135
1.36494
1.35858
1.35245
1.34677
1.34177
1.33773
1.33492
1.33364
1.33381
-0.000190937
5.47566e-05
-0.000904015
-0.00298556
-0.00596747
-0.00967916
-0.0139469
-0.0185994
-0.0234815
-0.0284541
-0.0333959
-0.0382023
-0.0427817
-0.0470564
-0.0509604
-0.0544382
-0.0574445
-0.0599415
-0.0618986
-0.0632926
-0.0641059
-0.0643254
-0.0639433
-0.0629552
-0.0613602
-0.0591611
-0.056363
-0.0529734
-0.0490013
-0.0444578
-0.0393554
-0.0337083
-0.0275314
-0.0208404
-0.0136511
-0.00597987
0.0021563
0.0107402
0.0197545
0.0291818
0.0390055
0.0492089
0.0597754
0.0706886
0.0819326
0.0934922
0.105352
0.117499
0.129917
0.142595
0.155518
0.168675
0.182054
0.195644
0.209433
0.223413
0.237574
0.251906
0.266402
0.281053
0.295852
0.310792
0.325867
0.341069
0.356394
0.371835
0.387389
0.403049
0.418812
0.434675
0.450632
0.466682
0.48282
0.499043
0.515349
0.531735
0.548198
0.564735
0.581344
0.598023
0.614768
0.631577
0.648447
0.665375
0.682359
0.699396
0.716481
0.733612
0.750785
0.767996
0.785239
0.802511
0.819806
0.837117
0.854439
0.871763
0.889083
0.90639
0.923674
0.940928
0.958139
0.975297
0.99239
1.00941
1.02633
1.04315
1.05985
1.07641
1.09281
1.10905
1.12509
1.14092
1.15652
1.17187
1.18694
1.20172
1.21617
1.23027
1.244
1.25733
1.27024
1.28269
1.29467
1.30614
1.31709
1.32747
1.33727
1.34647
1.35503
1.36293
1.37016
1.37669
1.38251
1.38759
1.39193
1.39552
1.39834
1.4004
1.4017
1.40223
1.40203
1.40109
1.39944
1.39711
1.39414
1.39057
1.38647
1.3819
1.37693
1.37165
1.36619
1.36065
1.35517
1.34993
1.34509
1.34085
1.33741
1.33498
1.33381
1.33397
0.000924617
0.00110428
0.000155496
-0.00177486
-0.00447077
-0.0077919
-0.0115971
-0.0157441
-0.0200989
-0.0245406
-0.0289608
-0.0332636
-0.0373657
-0.0411936
-0.0446842
-0.0477842
-0.0504493
-0.0526417
-0.0543314
-0.0554939
-0.0561104
-0.0561673
-0.0556553
-0.0545683
-0.0529039
-0.0506629
-0.0478489
-0.0444677
-0.040527
-0.0360358
-0.0310047
-0.0254462
-0.0193734
-0.0128006
-0.00574266
0.00178547
0.00976852
0.0181907
0.0270357
0.0362876
0.0459307
0.0559492
0.0663275
0.0770499
0.0881016
0.099468
0.111135
0.123088
0.135315
0.147802
0.160537
0.173507
0.186702
0.20011
0.213721
0.227526
0.241515
0.255679
0.27001
0.2845
0.299141
0.313926
0.328849
0.343904
0.359084
0.374384
0.389799
0.405324
0.420954
0.436686
0.452515
0.468437
0.48445
0.500549
0.516731
0.532994
0.549334
0.565749
0.582235
0.598789
0.61541
0.632093
0.648836
0.665635
0.682487
0.69939
0.716339
0.73333
0.750359
0.767422
0.784514
0.801629
0.818762
0.835907
0.853057
0.870205
0.887342
0.90446
0.921551
0.938605
0.95561
0.972556
0.989432
1.00622
1.02292
1.0395
1.05596
1.07227
1.08843
1.1044
1.12019
1.13576
1.15109
1.16617
1.18097
1.19548
1.20966
1.22349
1.23696
1.25003
1.26268
1.27488
1.28662
1.29786
1.30858
1.31876
1.32837
1.33739
1.34579
1.35356
1.36067
1.36711
1.37286
1.37791
1.38225
1.38586
1.38875
1.39091
1.39234
1.39305
1.39306
1.39238
1.39104
1.38906
1.38648
1.38335
1.37972
1.37566
1.37124
1.36655
1.36169
1.35676
1.3519
1.34724
1.34294
1.33916
1.33606
1.3338
1.33263
1.3327
0.0034439
0.00330868
0.00220564
0.000265668
-0.0023295
-0.0054566
-0.00899485
-0.0128233
-0.016827
-0.0208992
-0.0249436
-0.0288742
-0.032615
-0.0360977
-0.0392639
-0.0420632
-0.0444522
-0.0463955
-0.0478632
-0.0488311
-0.0492801
-0.0491963
-0.0485692
-0.0473923
-0.0456623
-0.0433784
-0.0405431
-0.0371608
-0.0332379
-0.0287825
-0.0238042
-0.0183136
-0.0123224
-0.00584361
0.00110916
0.00852191
0.0163803
0.0246696
0.0333748
0.0424811
0.0519736
0.0618372
0.0720572
0.0826187
0.0935075
0.10471
0.116212
0.128
0.140062
0.152385
0.164957
0.177766
0.190802
0.204052
0.217509
0.231161
0.245
0.259016
0.273201
0.287549
0.30205
0.316699
0.331488
0.346411
0.361462
0.376636
0.391927
0.40733
0.42284
0.438454
0.454167
0.469975
0.485874
0.50186
0.51793
0.534082
0.55031
0.566613
0.582987
0.599429
0.615936
0.632505
0.649132
0.665814
0.682548
0.69933
0.716155
0.73302
0.74992
0.766851
0.783806
0.800781
0.817771
0.834767
0.851765
0.868755
0.885731
0.902684
0.919605
0.936483
0.953309
0.970071
0.986757
1.00335
1.01985
1.03623
1.05248
1.06858
1.08452
1.10028
1.11584
1.13119
1.1463
1.16115
1.17573
1.19001
1.20396
1.21757
1.23082
1.24367
1.25611
1.26811
1.27965
1.29071
1.30125
1.31126
1.32072
1.32959
1.33787
1.34553
1.35256
1.35893
1.36464
1.36967
1.37401
1.37766
1.38061
1.38286
1.38441
1.38528
1.38547
1.385
1.38391
1.38221
1.37994
1.37716
1.3739
1.37024
1.36624
1.36198
1.35755
1.35305
1.3486
1.34431
1.34033
1.33678
1.3338
1.33154
1.3302
1.32989
0.00710554
0.00643752
0.00503055
0.00296152
0.000348798
-0.00270166
-0.00608586
-0.00970162
-0.013452
-0.0172441
-0.0209929
-0.0246226
-0.0280638
-0.0312557
-0.0341439
-0.0366812
-0.0388275
-0.0405487
-0.0418161
-0.0426065
-0.0429012
-0.0426857
-0.0419495
-0.0406855
-0.0388899
-0.0365612
-0.0337007
-0.0303116
-0.0263994
-0.0219711
-0.0170354
-0.0116017
-0.0056808
0.000715643
0.00757543
0.0148856
0.0226324
0.0308021
0.0393808
0.0483546
0.0577094
0.0674311
0.0775054
0.0879184
0.0986565
0.109706
0.121055
0.13269
0.144598
0.156767
0.169186
0.181843
0.194728
0.20783
0.221139
0.234646
0.248341
0.262216
0.276263
0.290474
0.304842
0.319359
0.334019
0.348815
0.363742
0.378793
0.393964
0.409248
0.424642
0.440141
0.455741
0.471436
0.487224
0.5031
0.51906
0.535102
0.551221
0.567414
0.583678
0.600009
0.616405
0.632862
0.649376
0.665944
0.682561
0.699224
0.715929
0.732671
0.749445
0.766246
0.78307
0.799909
0.816759
0.833613
0.850463
0.867303
0.884125
0.900919
0.917677
0.934388
0.951043
0.96763
0.984137
1.00055
1.01686
1.03305
1.04911
1.06501
1.08075
1.09631
1.11166
1.1268
1.1417
1.15635
1.17072
1.18479
1.19854
1.21195
1.22499
1.23765
1.2499
1.26172
1.27308
1.28397
1.29435
1.30422
1.31354
1.32229
1.33047
1.33804
1.34499
1.35131
1.35699
1.36201
1.36636
1.37005
1.37305
1.37539
1.37706
1.37807
1.37843
1.37816
1.37728
1.37583
1.37384
1.37136
1.36842
1.36509
1.36143
1.35751
1.35342
1.34925
1.3451
1.34106
1.33726
1.33381
1.33083
1.32843
1.32675
1.32585
0.0116546
0.0103106
0.00848668
0.0061896
0.00345959
0.000386481
-0.00294029
-0.00643666
-0.0100201
-0.0136121
-0.0171392
-0.0205337
-0.0237346
-0.0266871
-0.029342
-0.0316563
-0.0335927
-0.0351192
-0.036209
-0.03684
-0.0369942
-0.0366576
-0.0358194
-0.0344725
-0.0326124
-0.0302378
-0.027349
-0.0239485
-0.0200408
-0.0156321
-0.0107299
-0.00534296
0.000518694
0.0068445
0.0136233
0.0208432
0.0284911
0.0365544
0.0450199
0.0538745
0.0631049
0.0726977
0.0826393
0.0929166
0.103517
0.114426
0.125633
0.137126
0.148891
0.160917
0.173194
0.185709
0.198453
0.211415
0.224586
0.237956
0.251516
0.265259
0.279175
0.293256
0.307496
0.321888
0.336425
0.3511
0.365907
0.380841
0.395896
0.411066
0.426348
0.441735
0.457224
0.472811
0.48849
0.504259
0.520113
0.536048
0.55206
0.568146
0.584303
0.600527
0.616815
0.633163
0.649566
0.666022
0.682526
0.699075
0.715663
0.732285
0.748937
0.765614
0.782309
0.799019
0.815735
0.832452
0.849162
0.865858
0.882533
0.899177
0.91578
0.932334
0.948827
0.965249
0.981588
0.997832
1.01397
1.02998
1.04585
1.06157
1.07713
1.0925
1.10767
1.12262
1.13733
1.15178
1.16596
1.17984
1.19341
1.20664
1.2195
1.23199
1.24407
1.25572
1.26693
1.27767
1.28792
1.29765
1.30686
1.31551
1.3236
1.33109
1.33799
1.34427
1.34993
1.35495
1.35932
1.36304
1.36611
1.36853
1.3703
1.37144
1.37195
1.37186
1.37118
1.36995
1.36819
1.36595
1.36328
1.36022
1.35683
1.35319
1.34936
1.34542
1.34146
1.33757
1.33384
1.33037
1.32727
1.32463
1.32249
1.32083
0.0168635
0.0147594
0.0124385
0.00983463
0.00690507
0.00372455
0.000370525
-0.00308786
-0.00658331
-0.0100489
-0.0134218
-0.0166434
-0.0196603
-0.0224234
-0.0248891
-0.0270188
-0.0287782
-0.0301383
-0.0310739
-0.0315645
-0.0315932
-0.0311466
-0.0302146
-0.02879
-0.0268683
-0.0244476
-0.0215281
-0.0181118
-0.0142029
-0.00980664
-0.00492957
0.000420118
0.00623327
0.0125001
0.0192102
0.0263523
0.0339143
0.0418844
0.0502503
0.0589995
0.0681192
0.0775967
0.0874193
0.0975744
0.108049
0.118832
0.12991
0.141273
0.152907
0.164803
0.176948
0.189332
0.201946
0.214779
0.227821
0.241064
0.254499
0.268116
0.281909
0.29587
0.30999
0.324264
0.338685
0.353245
0.367939
0.382761
0.397705
0.412767
0.42794
0.443221
0.458604
0.474086
0.489661
0.505327
0.521077
0.53691
0.552819
0.568803
0.584857
0.600978
0.617161
0.633403
0.6497
0.666049
0.682444
0.698881
0.715356
0.731864
0.748399
0.764956
0.781531
0.798116
0.814705
0.831292
0.84787
0.864431
0.880967
0.897469
0.913928
0.930334
0.946677
0.962946
0.979128
0.995213
1.01119
1.02703
1.04274
1.0583
1.07368
1.08888
1.10388
1.11866
1.1332
1.14748
1.16149
1.17521
1.18861
1.20168
1.21438
1.22671
1.23865
1.25016
1.26123
1.27185
1.28198
1.29161
1.30072
1.30928
1.3173
1.32474
1.33159
1.33785
1.34349
1.34851
1.35291
1.35667
1.3598
1.3623
1.36417
1.36542
1.36607
1.36613
1.36562
1.36457
1.36301
1.36098
1.35852
1.35567
1.35249
1.34905
1.34539
1.3416
1.33775
1.33391
1.33016
1.32658
1.32326
1.32029
1.3176
1.3151
0.0225284
0.0196212
0.01675
0.0137809
0.0105878
0.00723249
0.00378275
0.000293661
-0.00317971
-0.00658199
-0.00985978
-0.0129633
-0.0158458
-0.0184648
-0.0207815
-0.0227617
-0.0243747
-0.0255944
-0.0263979
-0.0267663
-0.026684
-0.0261386
-0.0251208
-0.0236237
-0.0216432
-0.0191771
-0.0162253
-0.01279
-0.00887451
-0.00448388
0.000375717
0.00569687
0.0114713
0.0176899
0.0243426
0.0314186
0.0389071
0.0467967
0.0550758
0.0637324
0.0727545
0.08213
0.0918467
0.101892
0.112255
0.122923
0.133886
0.14513
0.156646
0.168422
0.180447
0.192711
0.205205
0.217918
0.230842
0.243967
0.257285
0.270787
0.284466
0.298313
0.312321
0.326485
0.340796
0.355248
0.369835
0.384551
0.39939
0.414348
0.429418
0.444597
0.459879
0.47526
0.490736
0.506302
0.521954
0.537687
0.553498
0.569383
0.585339
0.60136
0.617443
0.633583
0.649778
0.666023
0.682313
0.698644
0.71501
0.731408
0.747831
0.764275
0.780734
0.797201
0.813671
0.830135
0.846588
0.863022
0.879428
0.895797
0.912121
0.928389
0.944592
0.960718
0.976756
0.992694
1.00852
1.02422
1.03977
1.05518
1.07041
1.08545
1.1003
1.11492
1.12931
1.14345
1.15731
1.17087
1.18413
1.19705
1.20962
1.22182
1.23363
1.24502
1.25598
1.26649
1.27652
1.28606
1.29509
1.30359
1.31155
1.31895
1.32577
1.33201
1.33765
1.34269
1.34711
1.35092
1.35411
1.35668
1.35864
1.36
1.36076
1.36095
1.36059
1.35969
1.3583
1.35643
1.35413
1.35145
1.34842
1.34511
1.34156
1.33784
1.33402
1.33015
1.3263
1.32254
1.31893
1.31556
1.31226
1.30888
0.028474
0.0247469
0.0212948
0.0179188
0.0144137
0.0108317
0.00723117
0.00365556
0.000149079
-0.00324322
-0.00647677
-0.00950938
-0.0123013
-0.0148159
-0.0170195
-0.0188821
-0.0203767
-0.0214799
-0.0221716
-0.0224348
-0.0222552
-0.0216217
-0.0205258
-0.0189615
-0.0169249
-0.0144141
-0.0114292
-0.00797186
-0.00404537
0.000345545
0.0051949
0.0104958
0.0162407
0.0224208
0.0290265
0.0360479
0.0434745
0.0512956
0.0595
0.0680764
0.0770135
0.0862996
0.095923
0.105872
0.116135
0.126701
0.137559
0.148698
0.160106
0.171774
0.18369
0.195845
0.208229
0.220834
0.233648
0.246665
0.259875
0.27327
0.286842
0.300583
0.314487
0.328547
0.342755
0.357106
0.371592
0.386208
0.400948
0.415807
0.430779
0.445861
0.461047
0.476332
0.491712
0.507184
0.522741
0.53838
0.554096
0.569887
0.585747
0.601673
0.617659
0.633703
0.649799
0.665944
0.682133
0.698362
0.714625
0.730918
0.747235
0.763571
0.77992
0.796276
0.812632
0.828981
0.845316
0.86163
0.877914
0.894159
0.910357
0.926497
0.942569
0.958563
0.974468
0.990272
1.00596
1.02152
1.03694
1.05221
1.0673
1.08221
1.09692
1.1114
1.12566
1.13966
1.15338
1.16682
1.17995
1.19275
1.20521
1.21729
1.22899
1.24028
1.25115
1.26157
1.27152
1.28099
1.28996
1.29841
1.30633
1.3137
1.32051
1.32674
1.33239
1.33744
1.3419
1.34575
1.349
1.35164
1.35368
1.35513
1.35601
1.35631
1.35607
1.3553
1.35403
1.35229
1.35012
1.34755
1.34462
1.34139
1.33789
1.33419
1.33033
1.32637
1.32236
1.31835
1.31441
1.31059
1.30665
1.30238
0.0345503
0.0300051
0.0259564
0.0221462
0.0182946
0.0144455
0.0106506
0.00694366
0.00335832
-6.87765e-05
-0.00330126
-0.00630381
-0.00904325
-0.0114885
-0.0136108
-0.0153843
-0.0167856
-0.0177943
-0.0183928
-0.0185662
-0.0183021
-0.0175906
-0.0164241
-0.0147976
-0.0127077
-0.010153
-0.00713388
-0.00365189
0.000289702
0.00468622
0.00953206
0.0148208
0.0205448
0.0266957
0.0332645
0.0402418
0.0476177
0.0553817
0.0635233
0.0720316
0.0808959
0.0901048
0.099647
0.109511
0.119687
0.130163
0.140929
0.151973
0.163286
0.174856
0.186674
0.198731
0.211016
0.223521
0.236236
0.249153
0.262264
0.27556
0.289033
0.302677
0.316484
0.330447
0.34456
0.358815
0.373206
0.387728
0.402375
0.417141
0.432022
0.447011
0.462106
0.4773
0.49259
0.507971
0.523437
0.538986
0.554612
0.570312
0.586081
0.601915
0.617809
0.63376
0.649762
0.665812
0.681905
0.698037
0.714201
0.730394
0.74661
0.762844
0.779089
0.795339
0.811588
0.827828
0.844053
0.860255
0.876425
0.892555
0.908635
0.924656
0.940609
0.956482
0.972265
0.987945
1.00351
1.01895
1.03424
1.04938
1.06436
1.07914
1.09373
1.10809
1.12223
1.13611
1.14973
1.16305
1.17608
1.18877
1.20113
1.21312
1.22473
1.23593
1.24672
1.25707
1.26697
1.27639
1.28531
1.29373
1.30162
1.30897
1.31577
1.32201
1.32768
1.33276
1.33725
1.34115
1.34445
1.34716
1.34928
1.35082
1.35178
1.35219
1.35204
1.35138
1.35021
1.34857
1.34649
1.34399
1.34112
1.33792
1.33443
1.33068
1.32674
1.32264
1.31842
1.31411
1.30979
1.3055
1.30091
1.29575
0.0406296
0.0352796
0.0306302
0.0263692
0.0221472
0.0180011
0.0139788
0.0101042
0.0064029
0.00290383
-0.000363726
-0.0033712
-0.00609113
-0.00849751
-0.0105664
-0.012276
-0.0136064
-0.0145403
-0.0150624
-0.0151601
-0.0148229
-0.0140424
-0.0128122
-0.0111282
-0.00898766
-0.00638984
-0.0033353
0.000174009
0.00413461
0.00854195
0.0133907
0.0186746
0.0243859
0.0305167
0.0370584
0.0440021
0.0513379
0.059056
0.0671461
0.0755981
0.0844013
0.0935448
0.103018
0.11281
0.12291
0.133308
0.143993
0.154954
0.166182
0.177666
0.189398
0.201366
0.213562
0.225977
0.238602
0.251429
0.264449
0.277655
0.291038
0.304592
0.318309
0.332183
0.346206
0.360373
0.374676
0.38911
0.40367
0.418349
0.433143
0.448046
0.463055
0.478163
0.493367
0.508662
0.524042
0.539505
0.555045
0.570658
0.58634
0.602086
0.617893
0.633754
0.649667
0.665627
0.681628
0.697667
0.713738
0.729836
0.745957
0.762093
0.77824
0.794391
0.810539
0.826678
0.842799
0.858897
0.874961
0.890983
0.906955
0.922867
0.93871
0.954472
0.970144
0.985713
1.00117
1.01649
1.03168
1.04671
1.06157
1.07625
1.09073
1.10499
1.11902
1.1328
1.14632
1.15956
1.17249
1.1851
1.19737
1.20928
1.22082
1.23197
1.2427
1.253
1.26285
1.27223
1.28113
1.28952
1.2974
1.30475
1.31156
1.31781
1.3235
1.32862
1.33315
1.3371
1.34046
1.34324
1.34543
1.34704
1.34809
1.34857
1.34852
1.34793
1.34684
1.34527
1.34324
1.34079
1.33794
1.33473
1.3312
1.32738
1.3233
1.31902
1.31455
1.30992
1.30519
1.30041
1.29517
1.28913
0.0466024
0.040467
0.0352216
0.030502
0.0258936
0.0214299
0.0171548
0.0130844
0.00923749
0.00563625
0.00230344
-0.000738221
-0.00346647
-0.00586024
-0.00789989
-0.00956746
-0.0108466
-0.0117228
-0.0121835
-0.0122181
-0.011818
-0.0109765
-0.00968855
-0.00795095
-0.00576209
-0.0031216
-3.04817e-05
0.00350874
0.0074923
0.0119158
0.0167738
0.0220599
0.0277665
0.0338861
0.0404103
0.0473302
0.0546364
0.0623194
0.0703693
0.0787762
0.0875298
0.0966195
0.106035
0.115766
0.125802
0.136133
0.146749
0.157639
0.168793
0.180202
0.191857
0.203747
0.215864
0.2282
0.240744
0.25349
0.266428
0.279552
0.292853
0.306325
0.31996
0.333751
0.347692
0.361777
0.375999
0.390352
0.40483
0.419429
0.434142
0.448964
0.463892
0.47892
0.494043
0.509256
0.524555
0.539935
0.555393
0.570924
0.586523
0.602186
0.617908
0.633686
0.649514
0.665388
0.681302
0.697253
0.713236
0.729245
0.745275
0.76132
0.777374
0.793432
0.809485
0.825528
0.841554
0.857553
0.873519
0.889443
0.905315
0.921127
0.93687
0.952532
0.968103
0.983571
0.998925
1.01415
1.02924
1.04417
1.05894
1.07352
1.08791
1.10208
1.11603
1.12973
1.14316
1.15632
1.16918
1.18172
1.19393
1.20578
1.21727
1.22837
1.23906
1.24932
1.25914
1.26851
1.27739
1.28578
1.29367
1.30103
1.30785
1.31413
1.31985
1.325
1.32959
1.33359
1.33701
1.33985
1.34211
1.3438
1.34491
1.34547
1.34548
1.34496
1.34393
1.3424
1.3404
1.33796
1.3351
1.33185
1.32824
1.32431
1.32008
1.31557
1.31083
1.30585
1.30071
1.29543
1.28954
1.28266
0.0523737
0.0454776
0.0396452
0.0344653
0.029462
0.0246665
0.0201202
0.0158329
0.0118173
0.00808948
0.00466681
0.00156692
-0.00119295
-0.00359624
-0.00562727
-0.00727159
-0.0085163
-0.0093497
-0.00976177
-0.00974415
-0.00929005
-0.0083944
-0.0070537
-0.00526587
-0.0030301
-0.000346828
0.0027822
0.00635404
0.0103648
0.0148097
0.0196831
0.0249784
0.0306884
0.0368055
0.0433214
0.0502273
0.0575141
0.0651726
0.0731933
0.0815662
0.0902814
0.0993288
0.108698
0.11838
0.128363
0.138639
0.149196
0.160025
0.171117
0.182462
0.19405
0.205872
0.217921
0.230186
0.242659
0.255333
0.268199
0.281249
0.294476
0.307873
0.321434
0.335151
0.349017
0.363027
0.377174
0.391452
0.405855
0.420378
0.435016
0.449764
0.464616
0.479568
0.494614
0.509751
0.524973
0.540276
0.555656
0.571108
0.586629
0.602213
0.617856
0.633553
0.649301
0.665094
0.680927
0.696795
0.712694
0.728619
0.744564
0.760523
0.776491
0.79246
0.808425
0.824379
0.840315
0.856225
0.8721
0.887932
0.903714
0.919435
0.935087
0.950658
0.966139
0.981518
0.996783
1.01192
1.02692
1.04177
1.05646
1.07096
1.08527
1.09937
1.11324
1.12687
1.14024
1.15334
1.16614
1.17863
1.19079
1.2026
1.21405
1.22512
1.23579
1.24604
1.25585
1.2652
1.27409
1.28249
1.29039
1.29778
1.30463
1.31095
1.31671
1.32191
1.32654
1.3306
1.33409
1.33699
1.33932
1.34107
1.34225
1.34287
1.34294
1.34247
1.34147
1.33997
1.33798
1.33553
1.33263
1.32931
1.32561
1.32153
1.31711
1.31237
1.30732
1.30199
1.29641
1.29063
1.28412
1.27642
0.0578624
0.0502313
0.043825
0.0381878
0.0327862
0.02765
0.0228199
0.0183004
0.0140982
0.0102247
0.00669265
0.00351482
0.000704122
-0.00172697
-0.0037665
-0.00540344
-0.00662788
-0.00743099
-0.00780521
-0.00774435
-0.00724361
-0.0062996
-0.00491019
-0.00307444
-0.000792546
0.0019341
0.00510292
0.00871052
0.0127528
0.0172245
0.0221195
0.0274312
0.0331526
0.0392758
0.0457925
0.0526941
0.0599716
0.0676161
0.0756182
0.0839681
0.092656
0.101672
0.111007
0.12065
0.130592
0.140823
0.151333
0.162113
0.173152
0.184443
0.195975
0.20774
0.219729
0.231934
0.244346
0.256956
0.269758
0.282743
0.295905
0.309237
0.322731
0.33638
0.350179
0.364121
0.378199
0.392408
0.406743
0.421197
0.435765
0.450443
0.465225
0.480106
0.495081
0.510146
0.525295
0.540526
0.555833
0.571211
0.586658
0.602167
0.617735
0.633358
0.64903
0.664746
0.680502
0.696292
0.712113
0.727959
0.743824
0.759702
0.775588
0.791476
0.807359
0.82323
0.839083
0.854909
0.870701
0.886451
0.90215
0.917789
0.933359
0.94885
0.96425
0.97955
0.994738
1.0098
1.02473
1.03951
1.05412
1.06856
1.0828
1.09684
1.11066
1.12423
1.13755
1.1506
1.16336
1.17582
1.18795
1.19974
1.21117
1.22222
1.23288
1.24313
1.25294
1.26231
1.27121
1.27964
1.28757
1.29499
1.30189
1.30825
1.31406
1.31932
1.32401
1.32814
1.33168
1.33465
1.33705
1.33886
1.3401
1.34078
1.34089
1.34046
1.33949
1.338
1.336
1.33351
1.33056
1.32715
1.32332
1.31908
1.31445
1.30946
1.3041
1.2984
1.29239
1.28612
1.27899
1.2705
0.0629978
0.0546579
0.0476931
0.0416044
0.0358048
0.0303238
0.0252019
0.0204389
0.0160371
0.0120036
0.00834674
0.00507529
0.00219836
-0.000275313
-0.00233734
-0.00397982
-0.00519566
-0.00597873
-0.0063239
-0.00622709
-0.00568547
-0.00469741
-0.00326215
-0.00137978
0.000948236
0.00371937
0.00693044
0.0105776
0.0146561
0.01916
0.024083
0.0294186
0.0351593
0.0412971
0.0478237
0.0547306
0.062009
0.0696499
0.0776439
0.0859815
0.0946532
0.103649
0.11296
0.122576
0.132488
0.142685
0.153159
0.1639
0.174898
0.186145
0.197631
0.209349
0.221289
0.233442
0.245802
0.258358
0.271105
0.284035
0.29714
0.310414
0.323849
0.337438
0.351177
0.365058
0.379074
0.393221
0.407493
0.421883
0.436388
0.451002
0.465718
0.480533
0.495442
0.51044
0.525522
0.540685
0.555923
0.571233
0.58661
0.602049
0.617547
0.633099
0.648699
0.664343
0.680027
0.695744
0.711492
0.727263
0.743053
0.758856
0.774666
0.790478
0.806285
0.82208
0.837856
0.853606
0.869322
0.884997
0.900621
0.916187
0.931684
0.947103
0.962433
0.977665
0.992785
1.00778
1.02265
1.03737
1.05192
1.0663
1.0805
1.09449
1.10826
1.1218
1.13509
1.1481
1.16084
1.17327
1.18539
1.19717
1.2086
1.21965
1.23032
1.24058
1.25042
1.25981
1.26875
1.27721
1.28519
1.29266
1.29961
1.30602
1.3119
1.31722
1.32199
1.32618
1.32979
1.33283
1.33529
1.33717
1.33846
1.33919
1.33934
1.33894
1.33798
1.33649
1.33447
1.33193
1.32891
1.3254
1.32143
1.31701
1.31216
1.30689
1.30122
1.29514
1.2887
1.28195
1.27422
1.26498
0.0677165
0.0586947
0.0511873
0.0446554
0.0384614
0.0326348
0.0272164
0.0222028
0.0175921
0.013388
0.00959476
0.00621775
0.00326258
0.000734635
-0.00136089
-0.003019
-0.00423543
-0.00500654
-0.00532942
-0.00520228
-0.00462415
-0.00359488
-0.00211515
-0.000186529
0.0021883
0.00500595
0.00826256
0.0119535
0.016073
0.020615
0.025573
0.03094
0.0367081
0.0428691
0.0494148
0.0563367
0.0636261
0.0712736
0.0792701
0.0876063
0.0962727
0.10526
0.114558
0.124158
0.13405
0.144225
0.154673
0.165386
0.176354
0.187567
0.199018
0.210698
0.222599
0.234711
0.247027
0.25954
0.272241
0.285123
0.29818
0.311403
0.324787
0.338325
0.352011
0.365837
0.379799
0.393889
0.408104
0.422437
0.436884
0.451438
0.466095
0.480849
0.495697
0.510633
0.525653
0.540753
0.555927
0.571173
0.586485
0.601859
0.617291
0.632776
0.648309
0.663886
0.679501
0.695151
0.710829
0.726531
0.742251
0.757984
0.773724
0.789465
0.805202
0.820927
0.836633
0.852314
0.867962
0.883568
0.899126
0.914627
0.93006
0.945416
0.960685
0.975857
0.990921
1.00587
1.02068
1.03535
1.04986
1.0642
1.07835
1.09231
1.10605
1.11956
1.13283
1.14584
1.15856
1.17099
1.18311
1.19489
1.20633
1.21741
1.2281
1.23839
1.24826
1.2577
1.26668
1.2752
1.28323
1.29076
1.29778
1.30427
1.31022
1.31561
1.32045
1.32472
1.32841
1.33152
1.33405
1.33599
1.33734
1.33811
1.3383
1.33792
1.33697
1.33547
1.33341
1.33082
1.3277
1.32408
1.31996
1.31535
1.31027
1.30473
1.29873
1.29228
1.28541
1.27818
1.26988
1.25991
0.0719633
0.0622847
0.0542512
0.0472861
0.040703
0.0345325
0.0288165
0.0235483
0.0187229
0.0143406
0.0104028
0.00691153
0.00386912
0.00127811
-0.000859168
-0.00254058
-0.00376436
-0.00452935
-0.00483494
-0.00468132
-0.00406928
-0.00300024
-0.00147636
0.000499205
0.00292265
0.00578977
0.00909584
0.0128351
0.0170013
0.021588
0.0265882
0.0319943
0.037798
0.0439911
0.0505654
0.0575123
0.0648226
0.0724871
0.0804968
0.0888424
0.0975146
0.106504
0.115801
0.125395
0.135279
0.145443
0.155877
0.166572
0.177519
0.18871
0.200136
0.211789
0.22366
0.23574
0.248023
0.2605
0.273164
0.286008
0.299024
0.312206
0.325547
0.33904
0.35268
0.366459
0.380372
0.394413
0.408577
0.422858
0.437252
0.451753
0.466355
0.481054
0.495846
0.510726
0.525688
0.54073
0.555845
0.571031
0.586283
0.601596
0.616967
0.632389
0.64786
0.663373
0.678925
0.694511
0.710125
0.725762
0.741418
0.757086
0.772761
0.788438
0.804111
0.819772
0.835415
0.851033
0.866619
0.882165
0.897664
0.913106
0.928483
0.943785
0.959003
0.974125
0.989142
1.00404
1.01881
1.03344
1.04792
1.06223
1.07636
1.0903
1.10402
1.11752
1.13078
1.14379
1.15652
1.16896
1.18109
1.1929
1.20437
1.21547
1.22621
1.23654
1.24647
1.25596
1.26501
1.27359
1.28169
1.2893
1.2964
1.30297
1.309
1.31448
1.31941
1.32376
1.32753
1.33072
1.33332
1.33532
1.33673
1.33755
1.33778
1.33741
1.33647
1.33494
1.33285
1.33019
1.32698
1.32323
1.31895
1.31414
1.30883
1.30301
1.29669
1.28986
1.28258
1.27488
1.26602
1.25536
0.0756876
0.0653767
0.0568341
0.0494461
0.0424808
0.0359703
0.0299575
0.0244334
0.0193901
0.0148252
0.0107374
0.00712596
0.0039902
0.00133002
-0.000854819
-0.00256484
-0.00380065
-0.00456342
-0.00485481
-0.00467675
-0.00403173
-0.00292288
-0.00135407
0.000670263
0.00314536
0.0060659
0.00942596
0.013219
0.0174383
0.0220768
0.0271268
0.03258
0.0384281
0.0446627
0.0512754
0.058257
0.0655985
0.0732907
0.0813244
0.0896905
0.0983794
0.107382
0.116688
0.126289
0.136176
0.146339
0.15677
0.167458
0.178396
0.189575
0.200987
0.212622
0.224473
0.236531
0.24879
0.26124
0.273876
0.28669
0.299674
0.312822
0.326127
0.339584
0.353184
0.366923
0.380794
0.394792
0.408911
0.423147
0.437494
0.451946
0.466499
0.481149
0.49589
0.510718
0.525629
0.540617
0.555678
0.570809
0.586005
0.601262
0.616575
0.63194
0.647352
0.662806
0.678299
0.693825
0.70938
0.724957
0.740553
0.756161
0.771778
0.787396
0.80301
0.818613
0.834199
0.849761
0.865292
0.880784
0.896231
0.911623
0.926952
0.942209
0.957383
0.972465
0.987444
1.00231
1.01705
1.03165
1.04611
1.0604
1.07452
1.08844
1.10217
1.11567
1.12894
1.14195
1.1547
1.16717
1.17933
1.19118
1.20269
1.21384
1.22463
1.23503
1.24502
1.25459
1.26371
1.27238
1.28057
1.28826
1.29545
1.30212
1.30825
1.31383
1.31884
1.32329
1.32715
1.33043
1.3331
1.33518
1.33665
1.33752
1.33778
1.33743
1.33648
1.33494
1.33279
1.33007
1.32676
1.32288
1.31843
1.31343
1.30788
1.30178
1.29513
1.28793
1.28024
1.27209
1.26269
1.25137
0.0788442
0.0679244
0.0588886
0.0510888
0.0437495
0.036904
0.0305973
0.024818
0.0195559
0.0148064
0.0105657
0.00683054
0.00359785
0.000864854
-0.00137107
-0.00311271
-0.00436319
-0.00512582
-0.00540412
-0.00520181
-0.00452323
-0.00337331
-0.00175741
0.000318951
0.00284979
0.00582849
0.009248
0.0131012
0.0173809
0.0220788
0.0271866
0.0326957
0.0385975
0.0448834
0.0515444
0.0585712
0.0659545
0.0736852
0.081754
0.0901516
0.0988684
0.107895
0.117222
0.126841
0.136742
0.146916
0.157354
0.168047
0.178986
0.190164
0.20157
0.213198
0.225039
0.237085
0.249328
0.261762
0.274378
0.287169
0.300129
0.313251
0.326529
0.339955
0.353524
0.36723
0.381066
0.395027
0.409109
0.423305
0.43761
0.45202
0.46653
0.481135
0.495831
0.510612
0.525475
0.540414
0.555427
0.570507
0.585652
0.600857
0.616117
0.631428
0.646786
0.662186
0.677624
0.693095
0.708594
0.724116
0.739657
0.755211
0.770773
0.786338
0.801899
0.81745
0.832985
0.848497
0.863979
0.879425
0.894827
0.910176
0.925464
0.940682
0.955822
0.970872
0.985823
1.00066
1.01538
1.02997
1.04441
1.0587
1.07281
1.08674
1.10047
1.11399
1.12728
1.14032
1.1531
1.16561
1.17782
1.18972
1.20129
1.21251
1.22337
1.23384
1.24391
1.25357
1.26279
1.27155
1.27984
1.28764
1.29494
1.30171
1.30795
1.31364
1.31876
1.32331
1.32727
1.33064
1.3334
1.33556
1.33709
1.33801
1.33831
1.33798
1.33703
1.33546
1.33328
1.33048
1.32707
1.32306
1.31845
1.31324
1.30745
1.30107
1.2941
1.28654
1.27845
1.26987
1.25995
1.24799
0.0813927
0.069885
0.0603715
0.0521712
0.0444664
0.0372922
0.0306955
0.0246635
0.0191838
0.0142497
0.00985535
0.00599521
0.00266406
-0.000143156
-0.00243149
-0.0042059
-0.00547167
-0.00623414
-0.00649857
-0.00627059
-0.00555644
-0.00436271
-0.00269598
-0.000563066
0.00202858
0.00507113
0.00855678
0.0124777
0.0168254
0.021591
0.0267654
0.0323399
0.0383054
0.0446528
0.0513725
0.058455
0.0658912
0.0736716
0.0817868
0.0902271
0.0989831
0.108046
0.117405
0.127053
0.136979
0.147175
0.157631
0.168339
0.179291
0.190477
0.20189
0.21352
0.225361
0.237403
0.249641
0.262066
0.27467
0.287448
0.300392
0.313496
0.326753
0.340157
0.353702
0.367381
0.381189
0.39512
0.40917
0.423333
0.437603
0.451977
0.466449
0.481014
0.495669
0.510409
0.525228
0.540124
0.555092
0.570127
0.585225
0.600382
0.615593
0.630855
0.646162
0.661512
0.6769
0.69232
0.707768
0.72324
0.73873
0.754235
0.769749
0.785265
0.800778
0.816282
0.831771
0.847239
0.86268
0.878085
0.893449
0.908762
0.924016
0.939205
0.954317
0.969344
0.984276
0.999102
1.01381
1.02839
1.04283
1.05712
1.07125
1.08519
1.09894
1.11249
1.12581
1.13889
1.15172
1.16428
1.17655
1.18851
1.20016
1.21146
1.2224
1.23297
1.24314
1.2529
1.26223
1.2711
1.27951
1.28743
1.29485
1.30174
1.3081
1.31391
1.31916
1.32382
1.3279
1.33137
1.33422
1.33646
1.33807
1.33905
1.33938
1.33908
1.33814
1.33655
1.33432
1.33145
1.32794
1.32379
1.31902
1.31361
1.30758
1.30093
1.29365
1.28574
1.27725
1.26824
1.25782
1.24524
0.0832949
0.071219
0.0612427
0.0526527
0.0445911
0.0370953
0.0302139
0.0239329
0.0182382
0.0131213
0.00857439
0.00459006
0.00116096
-0.00172004
-0.00406012
-0.00586651
-0.00714626
-0.00790656
-0.00815463
-0.0078981
-0.00714483
-0.00590284
-0.00418011
-0.001985
0.000673695
0.00378715
0.00734675
0.0113436
0.0157679
0.0206102
0.025861
0.0315111
0.0375508
0.0439703
0.0507596
0.0579093
0.0654098
0.0732514
0.0814244
0.089919
0.0987259