/*--------------------------------*- C++ -*----------------------------------*\
  =========                 |
  \\      /  F ield         | OpenFOAM: The Open Source CFD Toolbox
   \\    /   O peration     | Website:  https://openfoam.org
    \\  /    A nd           | Version:  7
     \\/     M anipulation  |
\*---------------------------------------------------------------------------*/
FoamFile
{
    version     2.0;
    format      ascii;
    class       surfaceScalarField;
    location    "0.05";
    object      phi;
}
// * * * * * * * * * * * * * * * * * * * * * * * * * * * * * * * * * * * * * //

dimensions      [0 3 -1 0 0 0 0];

internalField   nonuniform List<scalar> 
25360
(
1.18455e-10
-1.18445e-10
3.64307e-10
-2.45849e-10
6.02332e-10
-2.38028e-10
7.54541e-10
-1.52203e-10
7.79551e-10
-2.50122e-11
6.56224e-10
1.23333e-10
3.75952e-10
2.80247e-10
-6.19751e-11
4.37927e-10
-6.53594e-10
5.91627e-10
-1.39209e-09
7.3849e-10
-2.2688e-09
8.76707e-10
-3.27412e-09
1.00533e-09
-4.39786e-09
1.12374e-09
-5.62959e-09
1.23173e-09
-6.95886e-09
1.32927e-09
-8.37541e-09
1.41654e-09
-9.86916e-09
1.49376e-09
-1.14304e-08
1.56128e-09
-1.30499e-08
1.61944e-09
-1.47186e-08
1.6687e-09
-1.64281e-08
1.70948e-09
-1.81703e-08
1.74223e-09
-1.99377e-08
1.76743e-09
-2.17233e-08
1.78555e-09
-2.35203e-08
1.79705e-09
-2.53227e-08
1.80242e-09
-2.71248e-08
1.8021e-09
-2.89214e-08
1.79652e-09
-3.07075e-08
1.78614e-09
-3.24789e-08
1.77139e-09
-3.42315e-08
1.75265e-09
-3.59619e-08
1.73032e-09
-3.76666e-08
1.7048e-09
-3.93431e-08
1.67641e-09
-4.09885e-08
1.64548e-09
-4.26009e-08
1.61235e-09
-4.41782e-08
1.57733e-09
-4.57189e-08
1.5407e-09
-4.72217e-08
1.50273e-09
-4.86853e-08
1.46366e-09
-5.0109e-08
1.42372e-09
-5.14921e-08
1.3831e-09
-5.28342e-08
1.34201e-09
-5.41348e-08
1.30063e-09
-5.53939e-08
1.25914e-09
-5.66116e-08
1.21768e-09
-5.7788e-08
1.17638e-09
-5.89233e-08
1.13535e-09
-6.0018e-08
1.09469e-09
-6.10726e-08
1.05452e-09
-6.20875e-08
1.01491e-09
-6.30634e-08
9.75937e-10
-6.40011e-08
9.37659e-10
-6.49012e-08
9.0012e-10
-6.57645e-08
8.63356e-10
-6.65919e-08
8.27392e-10
-6.73842e-08
7.92253e-10
-6.81421e-08
7.57955e-10
-6.88666e-08
7.24508e-10
-6.95585e-08
6.91903e-10
-7.02187e-08
6.60125e-10
-7.08478e-08
6.29157e-10
-7.14468e-08
5.98981e-10
-7.20164e-08
5.69577e-10
-7.25573e-08
5.40915e-10
-7.30702e-08
5.12955e-10
-7.35559e-08
4.85658e-10
-7.40149e-08
4.58983e-10
-7.44478e-08
4.32885e-10
-7.48551e-08
4.07313e-10
-7.52373e-08
3.82209e-10
-7.55948e-08
3.57517e-10
-7.5928e-08
3.33178e-10
-7.62371e-08
3.09132e-10
-7.65224e-08
2.85313e-10
-7.67841e-08
2.61651e-10
-7.70221e-08
2.38073e-10
-7.72367e-08
2.14512e-10
-7.74276e-08
1.909e-10
-7.75947e-08
1.67168e-10
-7.7738e-08
1.43243e-10
-7.7857e-08
1.19052e-10
-7.79515e-08
9.4523e-11
-7.80211e-08
6.9586e-11
-7.80653e-08
4.41666e-11
-7.80835e-08
1.81876e-11
-7.80751e-08
-8.42953e-12
-7.80393e-08
-3.5762e-11
-7.79754e-08
-6.38824e-11
-7.78826e-08
-9.28594e-11
-7.77598e-08
-1.22761e-10
-7.76061e-08
-1.53656e-10
-7.74205e-08
-1.85611e-10
-7.72018e-08
-2.18686e-10
-7.69489e-08
-2.52935e-10
-7.66605e-08
-2.88406e-10
-7.63354e-08
-3.25145e-10
-7.59722e-08
-3.63196e-10
-7.55696e-08
-4.02598e-10
-7.51262e-08
-4.43386e-10
-7.46406e-08
-4.85582e-10
-7.41114e-08
-5.29203e-10
-7.35371e-08
-5.74255e-10
-7.29164e-08
-6.2074e-10
-7.22478e-08
-6.68648e-10
-7.15298e-08
-7.17957e-10
-7.07612e-08
-7.68634e-10
-6.99405e-08
-8.20633e-10
-6.90666e-08
-8.73894e-10
-6.81383e-08
-9.28346e-10
-6.71544e-08
-9.839e-10
-6.61139e-08
-1.04045e-09
-6.50161e-08
-1.09787e-09
-6.38601e-08
-1.15601e-09
-6.26453e-08
-1.21471e-09
-6.13716e-08
-1.27378e-09
-6.00385e-08
-1.33302e-09
-5.86463e-08
-1.39223e-09
-5.71951e-08
-1.45116e-09
-5.56856e-08
-1.50956e-09
-5.41184e-08
-1.56714e-09
-5.24949e-08
-1.62359e-09
-5.08163e-08
-1.67859e-09
-4.90845e-08
-1.73179e-09
-4.73017e-08
-1.78281e-09
-4.54704e-08
-1.83129e-09
-4.35936e-08
-1.87679e-09
-4.16747e-08
-1.9189e-09
-3.97175e-08
-1.95717e-09
-3.77264e-08
-1.99115e-09
-3.5706e-08
-2.02036e-09
-3.36617e-08
-2.04432e-09
-3.15991e-08
-2.06254e-09
-2.95246e-08
-2.07451e-09
-2.74449e-08
-2.07973e-09
-2.53672e-08
-2.07766e-09
-2.32994e-08
-2.06781e-09
-2.12498e-08
-2.04965e-09
-1.92271e-08
-2.02269e-09
-1.72407e-08
-1.98643e-09
-1.53003e-08
-1.94039e-09
-1.34162e-08
-1.88412e-09
-1.1599e-08
-1.81716e-09
-9.85987e-09
-1.73912e-09
-8.21021e-09
-1.64966e-09
-6.66172e-09
-1.54849e-09
-5.22631e-09
-1.43541e-09
-3.91597e-09
-1.31034e-09
-2.7426e-09
-1.17337e-09
-1.71781e-09
-1.0248e-09
-8.5254e-10
-8.65265e-10
-1.56629e-10
-6.95909e-10
3.62011e-10
-5.1864e-10
6.98626e-10
-3.36615e-10
8.53692e-10
-1.55064e-10
8.36394e-10
1.72989e-11
6.70461e-10
1.65935e-10
4.04487e-10
2.65977e-10
1.31088e-10
2.73401e-10
1.31089e-10
2.55852e-10
-3.74295e-10
6.5087e-10
-6.40865e-10
9.61869e-10
-5.4904e-10
1.04787e-09
-2.38198e-10
8.17432e-10
2.05422e-10
2.16293e-10
7.24478e-10
-7.83082e-10
1.27964e-09
-2.18948e-09
1.84431e-09
-3.9988e-09
2.40095e-09
-6.19821e-09
2.9379e-09
-8.76908e-09
3.44757e-09
-1.16889e-08
3.92514e-09
-1.49328e-08
4.3676e-09
-1.84745e-08
4.77342e-09
-2.2287e-08
5.14185e-09
-2.63435e-08
5.47299e-09
-3.06171e-08
5.76734e-09
-3.50816e-08
6.0258e-09
-3.97117e-08
6.24954e-09
-4.44829e-08
6.43992e-09
-4.93718e-08
6.59839e-09
-5.43562e-08
6.72658e-09
-5.94149e-08
6.82614e-09
-6.45281e-08
6.89872e-09
-6.96771e-08
6.94608e-09
-7.48446e-08
6.96992e-09
-8.00144e-08
6.97188e-09
-8.51716e-08
6.95366e-09
-9.03023e-08
6.9169e-09
-9.53941e-08
6.86315e-09
-1.00435e-07
6.79393e-09
-1.05416e-07
6.71076e-09
-1.10326e-07
6.61503e-09
-1.15158e-07
6.50809e-09
-1.19903e-07
6.39122e-09
-1.24557e-07
6.26566e-09
-1.29112e-07
6.13256e-09
-1.33564e-07
5.99302e-09
-1.3791e-07
5.84806e-09
-1.42145e-07
5.69865e-09
-1.46267e-07
5.54565e-09
-1.50273e-07
5.38988e-09
-1.54163e-07
5.23209e-09
-1.57936e-07
5.07299e-09
-1.6159e-07
4.91322e-09
-1.65126e-07
4.75337e-09
-1.68543e-07
4.59396e-09
-1.71843e-07
4.43543e-09
-1.75027e-07
4.27821e-09
-1.78095e-07
4.12268e-09
-1.81049e-07
3.96917e-09
-1.83891e-07
3.81797e-09
-1.86623e-07
3.66929e-09
-1.89246e-07
3.52334e-09
-1.91763e-07
3.38026e-09
-1.94176e-07
3.24017e-09
-1.96487e-07
3.10315e-09
-1.98698e-07
2.96929e-09
-2.00812e-07
2.8386e-09
-2.02831e-07
2.71107e-09
-2.04758e-07
2.58667e-09
-2.06594e-07
2.46534e-09
-2.08342e-07
2.34701e-09
-2.10004e-07
2.2316e-09
-2.11582e-07
2.11898e-09
-2.13078e-07
2.00904e-09
-2.14494e-07
1.90161e-09
-2.15832e-07
1.79653e-09
-2.17092e-07
1.69363e-09
-2.18278e-07
1.59271e-09
-2.19389e-07
1.49356e-09
-2.20428e-07
1.39598e-09
-2.21394e-07
1.29973e-09
-2.2229e-07
1.20459e-09
-2.23115e-07
1.11029e-09
-2.23869e-07
1.01659e-09
-2.24555e-07
9.23211e-10
-2.2517e-07
8.29898e-10
-2.25715e-07
7.36381e-10
-2.26191e-07
6.4239e-10
-2.26595e-07
5.47649e-10
-2.26928e-07
4.51877e-10
-2.27188e-07
3.54796e-10
-2.27375e-07
2.56125e-10
-2.27486e-07
1.55579e-10
-2.27521e-07
5.28719e-11
-2.27477e-07
-5.22852e-11
-2.27353e-07
-1.60175e-10
-2.27145e-07
-2.71073e-10
-2.26853e-07
-3.85246e-10
-2.26473e-07
-5.02953e-10
-2.26002e-07
-6.24447e-10
-2.25438e-07
-7.4997e-10
-2.24777e-07
-8.7975e-10
-2.24016e-07
-1.014e-09
-2.23151e-07
-1.1529e-09
-2.2218e-07
-1.29664e-09
-2.21097e-07
-1.44538e-09
-2.19901e-07
-1.59924e-09
-2.18586e-07
-1.75836e-09
-2.17149e-07
-1.9228e-09
-2.15585e-07
-2.09263e-09
-2.13891e-07
-2.26787e-09
-2.12064e-07
-2.4485e-09
-2.10098e-07
-2.63447e-09
-2.0799e-07
-2.82568e-09
-2.05737e-07
-3.022e-09
-2.03334e-07
-3.22324e-09
-2.00779e-07
-3.42914e-09
-1.98068e-07
-3.63943e-09
-1.95198e-07
-3.85373e-09
-1.92167e-07
-4.07163e-09
-1.88972e-07
-4.29263e-09
-1.85612e-07
-4.51618e-09
-1.82085e-07
-4.74163e-09
-1.7839e-07
-4.9683e-09
-1.74528e-07
-5.1954e-09
-1.70498e-07
-5.42209e-09
-1.66302e-07
-5.64745e-09
-1.61941e-07
-5.87048e-09
-1.57418e-07
-6.09008e-09
-1.52737e-07
-6.30509e-09
-1.47901e-07
-6.51425e-09
-1.42916e-07
-6.71624e-09
-1.3779e-07
-6.90965e-09
-1.32528e-07
-7.093e-09
-1.2714e-07
-7.26474e-09
-1.21636e-07
-7.42325e-09
-1.16026e-07
-7.56685e-09
-1.10323e-07
-7.69381e-09
-1.04541e-07
-7.80236e-09
-9.86949e-08
-7.89066e-09
-9.28006e-08
-7.95687e-09
-8.6876e-08
-7.9991e-09
-8.09403e-08
-8.01544e-09
-7.5014e-08
-8.00398e-09
-6.9119e-08
-7.96284e-09
-6.32785e-08
-7.89014e-09
-5.75171e-08
-7.78406e-09
-5.18607e-08
-7.64283e-09
-4.63364e-08
-7.46477e-09
-4.09722e-08
-7.24828e-09
-3.57974e-08
-6.99192e-09
-3.08421e-08
-6.69443e-09
-2.6137e-08
-6.35479e-09
-2.17132e-08
-5.97228e-09
-1.7602e-08
-5.54661e-09
-1.38344e-08
-5.07801e-09
-1.04402e-08
-4.56747e-09
-7.44806e-09
-4.01698e-09
-4.88337e-09
-3.42996e-09
-2.76743e-09
-2.81185e-09
-1.11495e-09
-2.17112e-09
6.91483e-11
-1.52071e-09
7.94433e-10
-8.80349e-10
1.09187e-09
-2.80138e-10
1.02369e-09
2.34109e-10
6.96243e-10
5.93431e-10
2.73584e-10
6.96063e-10
4.0467e-10
2.58569e-10
-6.32869e-10
5.87711e-10
-9.70002e-10
7.2278e-10
-6.84107e-10
4.93402e-10
-8.81644e-12
-2.16065e-10
9.14883e-10
-1.47895e-09
1.98738e-09
-3.33571e-09
3.13638e-09
-5.80223e-09
4.31084e-09
-8.8763e-09
5.47502e-09
-1.25426e-08
6.6042e-09
-1.67765e-08
7.68146e-09
-2.15468e-08
8.69545e-09
-2.68181e-08
9.63889e-09
-3.2552e-08
1.05073e-08
-3.87088e-08
1.12986e-08
-4.52479e-08
1.20121e-08
-5.21289e-08
1.26483e-08
-5.93117e-08
1.32086e-08
-6.67573e-08
1.36952e-08
-7.44278e-08
1.41105e-08
-8.2287e-08
1.44575e-08
-9.02998e-08
1.47394e-08
-9.84332e-08
1.49596e-08
-1.06656e-07
1.51215e-08
-1.14939e-07
1.52288e-08
-1.23254e-07
1.52849e-08
-1.31575e-07
1.52935e-08
-1.3988e-07
1.5258e-08
-1.48145e-07
1.5182e-08
-1.5635e-07
1.50687e-08
-1.64478e-07
1.49216e-08
-1.72511e-07
1.47437e-08
-1.80434e-07
1.45382e-08
-1.88234e-07
1.43079e-08
-1.95898e-07
1.40556e-08
-2.03417e-07
1.3784e-08
-2.1078e-07
1.34957e-08
-2.1798e-07
1.31929e-08
-2.25009e-07
1.28779e-08
-2.31864e-07
1.25529e-08
-2.38538e-07
1.22197e-08
-2.45028e-07
1.18801e-08
-2.51332e-07
1.15358e-08
-2.57447e-07
1.11883e-08
-2.63373e-07
1.08391e-08
-2.69109e-07
1.04894e-08
-2.74655e-07
1.01403e-08
-2.80013e-07
9.79298e-09
-2.85183e-07
9.44827e-09
-2.90167e-07
9.10701e-09
-2.94968e-07
8.76993e-09
-2.99587e-07
8.43765e-09
-3.04029e-07
8.11069e-09
-3.08295e-07
7.7895e-09
-3.12389e-07
7.47441e-09
-3.16315e-07
7.16569e-09
-3.20075e-07
6.86356e-09
-3.23674e-07
6.56815e-09
-3.27115e-07
6.27953e-09
-3.30402e-07
5.99771e-09
-3.33537e-07
5.72262e-09
-3.36526e-07
5.45416e-09
-3.39371e-07
5.19217e-09
-3.42076e-07
4.93645e-09
-3.44644e-07
4.68678e-09
-3.47078e-07
4.44286e-09
-3.49381e-07
4.20437e-09
-3.51555e-07
3.97097e-09
-3.53604e-07
3.74226e-09
-3.55529e-07
3.51782e-09
-3.57332e-07
3.29722e-09
-3.59017e-07
3.07998e-09
-3.60582e-07
2.86563e-09
-3.62031e-07
2.65364e-09
-3.63365e-07
2.44348e-09
-3.64583e-07
2.23459e-09
-3.65686e-07
2.0264e-09
-3.66674e-07
1.81834e-09
-3.67548e-07
1.60983e-09
-3.68306e-07
1.40026e-09
-3.68947e-07
1.18905e-09
-3.69471e-07
9.75576e-10
-3.69875e-07
7.59231e-10
-3.70158e-07
5.39401e-10
-3.70318e-07
3.15468e-10
-3.70352e-07
8.68135e-11
-3.70257e-07
-1.47177e-10
-3.7003e-07
-3.8711e-10
-3.69668e-07
-6.33578e-10
-3.69166e-07
-8.87159e-10
-3.68521e-07
-1.14841e-09
-3.67727e-07
-1.41788e-09
-3.66781e-07
-1.69608e-09
-3.65677e-07
-1.9835e-09
-3.64411e-07
-2.28059e-09
-3.62976e-07
-2.58777e-09
-3.61367e-07
-2.90542e-09
-3.59579e-07
-3.23388e-09
-3.57604e-07
-3.57343e-09
-3.55438e-07
-3.9243e-09
-3.53075e-07
-4.28667e-09
-3.50507e-07
-4.66064e-09
-3.47728e-07
-5.04623e-09
-3.44733e-07
-5.44341e-09
-3.41516e-07
-5.85203e-09
-3.3807e-07
-6.27188e-09
-3.34389e-07
-6.70262e-09
-3.30468e-07
-7.14382e-09
-3.26303e-07
-7.59492e-09
-3.21887e-07
-8.05527e-09
-3.17216e-07
-8.52406e-09
-3.12288e-07
-9.00036e-09
-3.07097e-07
-9.48308e-09
-3.01642e-07
-9.971e-09
-2.95921e-07
-1.04627e-08
-2.89933e-07
-1.09567e-08
-2.83677e-07
-1.14513e-08
-2.77154e-07
-1.19446e-08
-2.70367e-07
-1.24346e-08
-2.63319e-07
-1.29191e-08
-2.56013e-07
-1.33957e-08
-2.48456e-07
-1.38619e-08
-2.40655e-07
-1.4315e-08
-2.32619e-07
-1.47521e-08
-2.24359e-07
-1.51701e-08
-2.15886e-07
-1.55658e-08
-2.07215e-07
-1.5936e-08
-1.98361e-07
-1.6277e-08
-1.89343e-07
-1.65853e-08
-1.80179e-07
-1.68572e-08
-1.70893e-07
-1.70887e-08
-1.61508e-07
-1.72761e-08
-1.52049e-07
-1.74154e-08
-1.42546e-07
-1.75024e-08
-1.33028e-07
-1.75332e-08
-1.23528e-07
-1.75037e-08
-1.14081e-07
-1.741e-08
-1.04723e-07
-1.72481e-08
-9.54929e-08
-1.70143e-08
-8.64309e-08
-1.67048e-08
-7.75794e-08
-1.63163e-08
-6.8982e-08
-1.58457e-08
-6.06838e-08
-1.529e-08
-5.27312e-08
-1.46471e-08
-4.51708e-08
-1.39151e-08
-3.805e-08
-1.30931e-08
-3.14155e-08
-1.21811e-08
-2.53132e-08
-1.11803e-08
-1.97868e-08
-1.00939e-08
-1.48767e-08
-8.92707e-09
-1.06183e-08
-7.68834e-09
-7.03959e-09
-6.39057e-09
-4.15794e-09
-5.05278e-09
-1.97593e-09
-3.70272e-09
-4.75605e-10
-2.38068e-09
3.89153e-10
-1.14489e-09
7.02319e-10
-7.90562e-11
5.96935e-10
6.98816e-10
2.67282e-10
1.02572e-09
6.7195e-10
1.74401e-10
-8.07265e-10
2.87116e-10
-1.08273e-09
7.06255e-11
-4.67627e-10
-6.54008e-10
7.15818e-10
-2.0108e-09
2.27169e-09
-4.08082e-09
4.05739e-09
-6.91071e-09
5.96627e-09
-1.05201e-08
7.92027e-09
-1.4908e-08
9.86287e-09
-2.00573e-08
1.17535e-08
-2.59393e-08
1.35635e-08
-3.25166e-08
1.52728e-08
-3.9746e-08
1.68683e-08
-4.758e-08
1.83413e-08
-5.59685e-08
1.96871e-08
-6.48602e-08
2.09038e-08
-7.42032e-08
2.19914e-08
-8.39462e-08
2.29516e-08
-9.40384e-08
2.37874e-08
-1.04431e-07
2.45027e-08
-1.15075e-07
2.51021e-08
-1.25926e-07
2.55906e-08
-1.36941e-07
2.59737e-08
-1.48076e-07
2.62571e-08
-1.59294e-07
2.64467e-08
-1.70558e-07
2.65485e-08
-1.81833e-07
2.65683e-08
-1.93087e-07
2.65122e-08
-2.04291e-07
2.6386e-08
-2.15417e-07
2.61953e-08
-2.26442e-07
2.59459e-08
-2.37341e-07
2.5643e-08
-2.48095e-07
2.5292e-08
-2.58685e-07
2.48978e-08
-2.69094e-07
2.44652e-08
-2.79309e-07
2.39988e-08
-2.89316e-07
2.35029e-08
-2.99105e-07
2.29816e-08
-3.08666e-07
2.24388e-08
-3.17991e-07
2.1878e-08
-3.27074e-07
2.13026e-08
-3.35909e-07
2.07157e-08
-3.44494e-07
2.01203e-08
-3.52824e-07
1.95189e-08
-3.60899e-07
1.89141e-08
-3.68718e-07
1.8308e-08
-3.7628e-07
1.77027e-08
-3.83588e-07
1.71e-08
-3.90641e-07
1.65015e-08
-3.97442e-07
1.59086e-08
-4.03995e-07
1.53226e-08
-4.10302e-07
1.47446e-08
-4.16367e-07
1.41755e-08
-4.22193e-07
1.36161e-08
-4.27786e-07
1.3067e-08
-4.33149e-07
1.25288e-08
-4.38287e-07
1.20017e-08
-4.43205e-07
1.1486e-08
-4.47907e-07
1.09819e-08
-4.52399e-07
1.04894e-08
-4.56685e-07
1.00084e-08
-4.60769e-07
9.53867e-09
-4.64657e-07
9.08005e-09
-4.68353e-07
8.63218e-09
-4.71861e-07
8.19463e-09
-4.75185e-07
7.76693e-09
-4.78329e-07
7.34853e-09
-4.81297e-07
6.93884e-09
-4.84092e-07
6.53719e-09
-4.86717e-07
6.14287e-09
-4.89175e-07
5.75511e-09
-4.91468e-07
5.37312e-09
-4.93598e-07
4.99604e-09
-4.95568e-07
4.623e-09
-4.97377e-07
4.25308e-09
-4.99028e-07
3.88533e-09
-5.0052e-07
3.51876e-09
-5.01854e-07
3.15241e-09
-5.0303e-07
2.78525e-09
-5.04046e-07
2.41625e-09
-5.04901e-07
2.04439e-09
-5.05594e-07
1.6686e-09
-5.06123e-07
1.28784e-09
-5.06484e-07
9.01046e-10
-5.06676e-07
5.07158e-10
-5.06694e-07
1.05115e-10
-5.06535e-07
-3.06131e-10
-5.06195e-07
-7.27617e-10
-5.05668e-07
-1.16035e-09
-5.0495e-07
-1.60533e-09
-5.04035e-07
-2.06351e-09
-5.02917e-07
-2.53581e-09
-5.0159e-07
-3.02311e-09
-5.00047e-07
-3.52625e-09
-4.98282e-07
-4.04599e-09
-4.96286e-07
-4.58305e-09
-4.94054e-07
-5.13807e-09
-4.91576e-07
-5.7116e-09
-4.88845e-07
-6.30414e-09
-4.85854e-07
-6.91605e-09
-4.82593e-07
-7.54762e-09
-4.79054e-07
-8.19899e-09
-4.7523e-07
-8.87021e-09
-4.71113e-07
-9.56116e-09
-4.66693e-07
-1.02716e-08
-4.61964e-07
-1.10011e-08
-4.56917e-07
-1.1749e-08
-4.51547e-07
-1.25146e-08
-4.45845e-07
-1.3297e-08
-4.39805e-07
-1.40949e-08
-4.33422e-07
-1.49069e-08
-4.26691e-07
-1.57314e-08
-4.19608e-07
-1.65665e-08
-4.12169e-07
-1.741e-08
-4.04372e-07
-1.82597e-08
-3.96216e-07
-1.91127e-08
-3.87701e-07
-1.99662e-08
-3.78828e-07
-2.0817e-08
-3.69602e-07
-2.16615e-08
-3.60025e-07
-2.24959e-08
-3.50104e-07
-2.33162e-08
-3.39848e-07
-2.4118e-08
-3.29267e-07
-2.48965e-08
-3.18372e-07
-2.56469e-08
-3.07178e-07
-2.63639e-08
-2.95702e-07
-2.70421e-08
-2.83962e-07
-2.76756e-08
-2.71981e-07
-2.82586e-08
-2.59781e-07
-2.87848e-08
-2.4739e-07
-2.92478e-08
-2.34838e-07
-2.96412e-08
-2.22156e-07
-2.99583e-08
-2.09379e-07
-3.01924e-08
-1.96544e-07
-3.03366e-08
-1.83694e-07
-3.03842e-08
-1.70869e-07
-3.03283e-08
-1.58117e-07
-3.01622e-08
-1.45485e-07
-2.98796e-08
-1.33025e-07
-2.94741e-08
-1.20791e-07
-2.89397e-08
-1.08836e-07
-2.82709e-08
-9.7219e-08
-2.74627e-08
-8.59982e-08
-2.65109e-08
-7.52333e-08
-2.5412e-08
-6.49848e-08
-2.41636e-08
-5.5313e-08
-2.27649e-08
-4.62772e-08
-2.12168e-08
-3.79351e-08
-1.95225e-08
-3.03409e-08
-1.76881e-08
-2.35439e-08
-1.5724e-08
-1.75865e-08
-1.36458e-08
-1.25011e-08
-1.1476e-08
-8.30677e-09
-9.24708e-09
-5.00464e-09
-7.00485e-09
-2.57215e-09
-4.81317e-09
-9.56124e-10
-2.76092e-09
-6.43196e-11
-9.7086e-10
2.43999e-10
3.905e-10
1.69395e-10
1.10033e-09
8.41346e-10
4.49455e-11
-8.52204e-10
-1.57316e-10
-8.80461e-10
-8.48507e-10
2.23576e-10
-2.19883e-09
2.06612e-09
-4.32864e-09
4.40149e-09
-7.31789e-09
7.04665e-09
-1.12134e-08
9.86176e-09
-1.60348e-08
1.27417e-08
-2.17802e-08
1.56082e-08
-2.84305e-08
1.84037e-08
-3.59533e-08
2.10863e-08
-4.43064e-08
2.3626e-08
-5.34403e-08
2.60021e-08
-6.33001e-08
2.82011e-08
-7.38277e-08
3.02147e-08
-8.49628e-08
3.20389e-08
-9.66444e-08
3.36729e-08
-1.08811e-07
3.51186e-08
-1.21403e-07
3.63794e-08
-1.34361e-07
3.74606e-08
-1.47628e-07
3.83686e-08
-1.61148e-07
3.91104e-08
-1.74868e-07
3.96939e-08
-1.88738e-07
4.01274e-08
-2.02711e-07
4.04193e-08
-2.16741e-07
4.05785e-08
-2.30786e-07
4.06137e-08
-2.44807e-07
4.05336e-08
-2.58769e-07
4.03471e-08
-2.72636e-07
4.00627e-08
-2.86379e-07
3.96886e-08
-2.99969e-07
3.9233e-08
-3.1338e-07
3.87038e-08
-3.26591e-07
3.81084e-08
-3.3958e-07
3.74542e-08
-3.52329e-07
3.67481e-08
-3.64823e-07
3.59965e-08
-3.77047e-07
3.52057e-08
-3.8899e-07
3.43814e-08
-4.00641e-07
3.35293e-08
-4.11993e-07
3.26544e-08
-4.23039e-07
3.17614e-08
-4.33773e-07
3.08548e-08
-4.44193e-07
2.99387e-08
-4.54296e-07
2.90167e-08
-4.6408e-07
2.80922e-08
-4.73546e-07
2.71685e-08
-4.82694e-07
2.62482e-08
-4.91526e-07
2.53338e-08
-5.00045e-07
2.44275e-08
-5.08254e-07
2.35314e-08
-5.16156e-07
2.2647e-08
-5.23757e-07
2.17758e-08
-5.31059e-07
2.0919e-08
-5.3807e-07
2.00776e-08
-5.44794e-07
1.92523e-08
-5.51236e-07
1.84438e-08
-5.57402e-07
1.76524e-08
-5.63298e-07
1.68783e-08
-5.68931e-07
1.61217e-08
-5.74305e-07
1.53823e-08
-5.79426e-07
1.466e-08
-5.843e-07
1.39544e-08
-5.88933e-07
1.32649e-08
-5.93329e-07
1.25911e-08
-5.97495e-07
1.19321e-08
-6.01433e-07
1.12871e-08
-6.0515e-07
1.06553e-08
-6.08648e-07
1.00356e-08
-6.11932e-07
9.42697e-09
-6.15005e-07
8.82823e-09
-6.1787e-07
8.23818e-09
-6.2053e-07
7.65555e-09
-6.22986e-07
7.07899e-09
-6.2524e-07
6.50711e-09
-6.27293e-07
5.93849e-09
-6.29146e-07
5.37165e-09
-6.30799e-07
4.8051e-09
-6.32251e-07
4.23729e-09
-6.33501e-07
3.66667e-09
-6.34548e-07
3.09167e-09
-6.35391e-07
2.5107e-09
-6.36025e-07
1.92215e-09
-6.36448e-07
1.32443e-09
-6.36657e-07
7.15926e-10
-6.36647e-07
9.50425e-11
-6.36413e-07
-5.39804e-10
-6.35951e-07
-1.19017e-09
-6.35253e-07
-1.85759e-09
-6.34315e-07
-2.54354e-09
-6.33129e-07
-3.24947e-09
-6.31688e-07
-3.97678e-09
-6.29985e-07
-4.72677e-09
-6.2801e-07
-5.50069e-09
-6.25756e-07
-6.29971e-09
-6.23215e-07
-7.12488e-09
-6.20376e-07
-7.97716e-09
-6.1723e-07
-8.85738e-09
-6.13768e-07
-9.76624e-09
-6.09979e-07
-1.07043e-08
-6.05855e-07
-1.16719e-08
-6.01385e-07
-1.26694e-08
-5.96558e-07
-1.36966e-08
-5.91366e-07
-1.47535e-08
-5.85798e-07
-1.58395e-08
-5.79845e-07
-1.69541e-08
-5.73498e-07
-1.80963e-08
-5.66748e-07
-1.92648e-08
-5.59586e-07
-2.04582e-08
-5.52007e-07
-2.16747e-08
-5.44002e-07
-2.2912e-08
-5.35565e-07
-2.41677e-08
-5.26693e-07
-2.54388e-08
-5.17381e-07
-2.67222e-08
-5.07626e-07
-2.80141e-08
-4.97429e-07
-2.93105e-08
-4.86788e-07
-3.0607e-08
-4.75706e-07
-3.18985e-08
-4.64188e-07
-3.31799e-08
-4.52239e-07
-3.44452e-08
-4.39866e-07
-3.56884e-08
-4.27082e-07
-3.69027e-08
-4.13897e-07
-3.80812e-08
-4.00328e-07
-3.92163e-08
-3.86391e-07
-4.03001e-08
-3.72109e-07
-4.13243e-08
-3.57505e-07
-4.22803e-08
-3.42604e-07
-4.31591e-08
-3.27437e-07
-4.39515e-08
-3.12037e-07
-4.46477e-08
-2.9644e-07
-4.52382e-08
-2.80686e-07
-4.57129e-08
-2.64817e-07
-4.60617e-08
-2.48879e-07
-4.62745e-08
-2.32922e-07
-4.63412e-08
-2.16998e-07
-4.62517e-08
-2.01164e-07
-4.59963e-08
-1.85478e-07
-4.55653e-08
-1.70003e-07
-4.49497e-08
-1.54802e-07
-4.41408e-08
-1.39942e-07
-4.31308e-08
-1.25492e-07
-4.19127e-08
-1.11522e-07
-4.04806e-08
-9.81041e-08
-3.88301e-08
-8.53093e-08
-3.69585e-08
-7.32088e-08
-3.48654e-08
-6.18724e-08
-3.25532e-08
-5.1367e-08
-3.00279e-08
-4.17552e-08
-2.72999e-08
-3.30934e-08
-2.43858e-08
-2.54295e-08
-2.13096e-08
-1.87999e-08
-1.81056e-08
-1.32256e-08
-1.48213e-08
-8.70863e-09
-1.15218e-08
-5.2262e-09
-8.29559e-09
-2.72521e-09
-5.26191e-09
-1.1153e-09
-2.58077e-09
-2.61654e-10
-4.63145e-10
2.3756e-11
8.14918e-10
8.651e-10
-1.06311e-10
-7.45894e-10
-6.82665e-10
-3.04103e-10
-1.92951e-09
1.47039e-09
-3.99558e-09
4.1322e-09
-6.98823e-09
7.39417e-09
-1.09794e-08
1.10378e-08
-1.60107e-08
1.4893e-08
-2.2098e-08
1.88291e-08
-2.92363e-08
2.27465e-08
-3.74031e-08
2.65706e-08
-4.65623e-08
3.02454e-08
-5.66669e-08
3.37306e-08
-6.76619e-08
3.69972e-08
-7.94865e-08
4.00257e-08
-9.20756e-08
4.28038e-08
-1.05362e-07
4.5325e-08
-1.19276e-07
4.75871e-08
-1.33749e-07
4.95915e-08
-1.48712e-07
5.13426e-08
-1.64098e-07
5.28466e-08
-1.79841e-07
5.41116e-08
-1.95877e-07
5.5147e-08
-2.12146e-07
5.5963e-08
-2.2859e-07
5.65708e-08
-2.45152e-07
5.69818e-08
-2.61782e-07
5.72079e-08
-2.78429e-07
5.7261e-08
-2.95049e-07
5.71532e-08
-3.11598e-07
5.68963e-08
-3.28037e-07
5.65022e-08
-3.44331e-07
5.59823e-08
-3.60446e-07
5.53479e-08
-3.76352e-07
5.46099e-08
-3.92023e-07
5.37787e-08
-4.07433e-07
5.28644e-08
-4.22561e-07
5.18766e-08
-4.37389e-07
5.08245e-08
-4.519e-07
4.97167e-08
-4.6608e-07
4.85614e-08
-4.79917e-07
4.73662e-08
-4.93401e-07
4.61383e-08
-5.06524e-07
4.48844e-08
-5.1928e-07
4.36107e-08
-5.31664e-07
4.23229e-08
-5.43674e-07
4.10263e-08
-5.55307e-07
3.97257e-08
-5.66564e-07
3.84253e-08
-5.77445e-07
3.71293e-08
-5.87952e-07
3.5841e-08
-5.98088e-07
3.45636e-08
-6.07857e-07
3.32998e-08
-6.17262e-07
3.20521e-08
-6.26309e-07
3.08225e-08
-6.35003e-07
2.96127e-08
-6.43349e-07
2.84241e-08
-6.51354e-07
2.72577e-08
-6.59025e-07
2.61145e-08
-6.66368e-07
2.49951e-08
-6.73389e-07
2.38996e-08
-6.80096e-07
2.28284e-08
-6.86495e-07
2.17811e-08
-6.92592e-07
2.07576e-08
-6.98395e-07
1.97572e-08
-7.0391e-07
1.87794e-08
-7.09142e-07
1.78233e-08
-7.14098e-07
1.68879e-08
-7.18782e-07
1.5972e-08
-7.23201e-07
1.50744e-08
-7.27359e-07
1.41937e-08
-7.31261e-07
1.33283e-08
-7.34909e-07
1.24768e-08
-7.38309e-07
1.16374e-08
-7.41461e-07
1.08083e-08
-7.4437e-07
9.98765e-09
-7.47037e-07
9.1735e-09
-7.49462e-07
8.36387e-09
-7.51647e-07
7.55669e-09
-7.53592e-07
6.74987e-09
-7.55296e-07
5.94127e-09
-7.56758e-07
5.12871e-09
-7.57976e-07
4.30999e-09
-7.58948e-07
3.48289e-09
-7.59671e-07
2.64517e-09
-7.60141e-07
1.79459e-09
-7.60354e-07
9.28917e-10
-7.60305e-07
4.59209e-11
-7.59988e-07
-8.56601e-10
-7.59398e-07
-1.78082e-09
-7.58527e-07
-2.72885e-09
-7.57367e-07
-3.70278e-09
-7.55912e-07
-4.70459e-09
-7.54153e-07
-5.73623e-09
-7.5208e-07
-6.79951e-09
-7.49685e-07
-7.89616e-09
-7.46957e-07
-9.02778e-09
-7.43886e-07
-1.01958e-08
-7.40461e-07
-1.14016e-08
-7.36672e-07
-1.26463e-08
-7.32508e-07
-1.39308e-08
-7.27956e-07
-1.52559e-08
-7.23006e-07
-1.66221e-08
-7.17645e-07
-1.80297e-08
-7.11863e-07
-1.94786e-08
-7.05648e-07
-2.09685e-08
-6.98989e-07
-2.24988e-08
-6.91875e-07
-2.40686e-08
-6.84295e-07
-2.56764e-08
-6.76239e-07
-2.73206e-08
-6.67698e-07
-2.89989e-08
-6.58664e-07
-3.07089e-08
-6.49128e-07
-3.24473e-08
-6.39085e-07
-3.42108e-08
-6.28529e-07
-3.59952e-08
-6.17455e-07
-3.77959e-08
-6.05861e-07
-3.96078e-08
-5.93747e-07
-4.14252e-08
-5.81112e-07
-4.32418e-08
-5.6796e-07
-4.50507e-08
-5.54295e-07
-4.68445e-08
-5.40125e-07
-4.86151e-08
-5.2546e-07
-5.03539e-08
-5.10311e-07
-5.20514e-08
-4.94694e-07
-5.3698e-08
-4.78627e-07
-5.52832e-08
-4.62132e-07
-5.67959e-08
-4.45231e-07
-5.82246e-08
-4.27954e-07
-5.95574e-08
-4.10332e-07
-6.07817e-08
-3.92399e-07
-6.18846e-08
-3.74193e-07
-6.2853e-08
-3.55758e-07
-6.36733e-08
-3.37139e-07
-6.43317e-08
-3.18387e-07
-6.48143e-08
-2.99554e-07
-6.51072e-08
-2.80699e-07
-6.51966e-08
-2.61882e-07
-6.50687e-08
-2.43168e-07
-6.47101e-08
-2.24626e-07
-6.41079e-08
-2.06325e-07
-6.32498e-08
-1.88342e-07
-6.21244e-08
-1.70751e-07
-6.07213e-08
-1.53633e-07
-5.90314e-08
-1.37066e-07
-5.70473e-08
-1.21132e-07
-5.47637e-08
-1.05913e-07
-5.21779e-08
-9.14878e-08
-4.92903e-08
-7.79356e-08
-4.61055e-08
-6.53308e-08
-4.26326e-08
-5.37432e-08
-3.88876e-08
-4.32353e-08
-3.48938e-08
-3.38599e-08
-3.0685e-08
-2.56577e-08
-2.63078e-08
-1.86536e-08
-2.18255e-08
-1.28526e-08
-1.73228e-08
-8.23637e-09
-1.29119e-08
-4.75767e-09
-8.74061e-09
-2.33603e-09
-5.00241e-09
-8.52635e-10
-1.94654e-09
-1.45212e-10
1.07498e-10
7.19886e-10
-2.6672e-10
-4.7918e-10
-1.24902e-09
6.78199e-10
-3.10025e-09
3.32165e-09
-5.94007e-09
6.97203e-09
-9.85609e-09
1.13101e-08
-1.49065e-08
1.60883e-08
-2.11234e-08
2.11099e-08
-2.85156e-08
2.62213e-08
-3.70724e-08
3.13033e-08
-4.67664e-08
3.62646e-08
-5.75567e-08
4.10358e-08
-6.93917e-08
4.55655e-08
-8.2211e-08
4.98165e-08
-9.59483e-08
5.37629e-08
-1.10532e-07
5.7388e-08
-1.2589e-07
6.0682e-08
-1.41944e-07
6.36415e-08
-1.58619e-07
6.62671e-08
-1.7584e-07
6.85635e-08
-1.93532e-07
7.05382e-08
-2.11622e-07
7.2201e-08
-2.30038e-07
7.35636e-08
-2.48714e-07
7.46387e-08
-2.67583e-07
7.54405e-08
-2.86585e-07
7.59836e-08
-3.0566e-07
7.62832e-08
-3.24754e-07
7.63547e-08
-3.43815e-07
7.62137e-08
-3.62794e-07
7.58756e-08
-3.81648e-07
7.53559e-08
-4.00335e-07
7.46694e-08
-4.18818e-07
7.38311e-08
-4.37063e-07
7.2855e-08
-4.55039e-07
7.17549e-08
-4.72719e-07
7.05442e-08
-4.90078e-07
6.92354e-08
-5.07094e-07
6.78406e-08
-5.23748e-07
6.63712e-08
-5.40025e-07
6.48381e-08
-5.5591e-07
6.32514e-08
-5.71392e-07
6.16205e-08
-5.86462e-07
5.99544e-08
-6.01113e-07
5.82613e-08
-6.15339e-07
5.65488e-08
-6.29136e-07
5.48238e-08
-6.42504e-07
5.30928e-08
-6.5544e-07
5.13616e-08
-6.67946e-07
4.96353e-08
-6.80024e-07
4.79188e-08
-6.91676e-07
4.62161e-08
-7.02907e-07
4.4531e-08
-7.13722e-07
4.28667e-08
-7.24125e-07
4.12258e-08
-7.34123e-07
3.96107e-08
-7.43722e-07
3.80234e-08
-7.5293e-07
3.64652e-08
-7.61753e-07
3.49373e-08
-7.70198e-07
3.34405e-08
-7.78274e-07
3.19754e-08
-7.85987e-07
3.05419e-08
-7.93346e-07
2.91401e-08
-8.00358e-07
2.77695e-08
-8.0703e-07
2.64294e-08
-8.1337e-07
2.5119e-08
-8.19384e-07
2.38371e-08
-8.25079e-07
2.25826e-08
-8.3046e-07
2.13538e-08
-8.35535e-07
2.01491e-08
-8.40308e-07
1.89666e-08
-8.44784e-07
1.78045e-08
-8.48968e-07
1.66606e-08
-8.52863e-07
1.55326e-08
-8.56473e-07
1.44182e-08
-8.598e-07
1.33149e-08
-8.62847e-07
1.22202e-08
-8.65615e-07
1.11314e-08
-8.68104e-07
1.00459e-08
-8.70315e-07
8.96074e-09
-8.72247e-07
7.87323e-09
-8.73898e-07
6.78045e-09
-8.75268e-07
5.6795e-09
-8.76352e-07
4.56744e-09
-8.77148e-07
3.44132e-09
-8.77652e-07
2.29817e-09
-8.77858e-07
1.13505e-09
-8.77761e-07
-5.09752e-11
-8.77355e-07
-1.26281e-09
-8.76633e-07
-2.50332e-09
-8.75586e-07
-3.77529e-09
-8.74207e-07
-5.08144e-09
-8.72488e-07
-6.42441e-09
-8.70417e-07
-7.80673e-09
-8.67986e-07
-9.23079e-09
-8.65183e-07
-1.06989e-08
-8.61998e-07
-1.2213e-08
-8.58419e-07
-1.37752e-08
-8.54433e-07
-1.53871e-08
-8.50029e-07
-1.70501e-08
-8.45195e-07
-1.87656e-08
-8.39916e-07
-2.05345e-08
-8.34181e-07
-2.23574e-08
-8.27976e-07
-2.42345e-08
-8.21288e-07
-2.6166e-08
-8.14106e-07
-2.81512e-08
-8.06415e-07
-3.01894e-08
-7.98204e-07
-3.22792e-08
-7.89462e-07
-3.44188e-08
-7.80177e-07
-3.66058e-08
-7.70339e-07
-3.88373e-08
-7.59937e-07
-4.11099e-08
-7.48965e-07
-4.34195e-08
-7.37415e-07
-4.57614e-08
-7.2528e-07
-4.81301e-08
-7.12556e-07
-5.05196e-08
-6.99241e-07
-5.2923e-08
-6.85333e-07
-5.53328e-08
-6.70835e-07
-5.77406e-08
-6.55748e-07
-6.01373e-08
-6.40079e-07
-6.25132e-08
-6.23837e-07
-6.48574e-08
-6.07032e-07
-6.71586e-08
-5.89679e-07
-6.94045e-08
-5.71795e-07
-7.15822e-08
-5.534e-07
-7.36777e-08
-5.3452e-07
-7.56768e-08
-5.1518e-07
-7.75642e-08
-4.95413e-07
-7.93241e-08
-4.75255e-07
-8.09401e-08
-4.54744e-07
-8.23954e-08
-4.33924e-07
-8.36725e-08
-4.12844e-07
-8.47538e-08
-3.91554e-07
-8.56213e-08
-3.70111e-07
-8.62569e-08
-3.48576e-07
-8.66424e-08
-3.27013e-07
-8.67599e-08
-3.0549e-07
-8.65915e-08
-2.8408e-07
-8.61201e-08
-2.62859e-07
-8.53289e-08
-2.41906e-07
-8.42025e-08
-2.21305e-07
-8.27261e-08
-2.01139e-07
-8.08869e-08
-1.81497e-07
-7.86737e-08
-1.62467e-07
-7.60775e-08
-1.44138e-07
-7.30924e-08
-1.266e-07
-6.97158e-08
-1.09941e-07
-6.59494e-08
-9.42464e-08
-6.18e-08
-7.95981e-08
-5.7281e-08
-6.60719e-08
-5.24137e-08
-5.37363e-08
-4.72294e-08
-4.26496e-08
-4.17717e-08
-3.28575e-08
-3.60999e-08
-2.43903e-08
-3.02927e-08
-1.72593e-08
-2.44537e-08
-1.1454e-08
-1.87172e-08
-6.93819e-09
-1.32564e-08
-3.64719e-09
-8.2934e-09
-1.48519e-09
-4.10854e-09
-3.23553e-10
-1.05414e-09
3.96335e-10
-4.29011e-10
-5.01562e-11
-1.83134e-09
2.08051e-09
-4.31274e-09
5.80302e-09
-7.95966e-09
1.0619e-08
-1.28358e-08
1.61862e-08
-1.89816e-08
2.22342e-08
-2.6416e-08
2.85443e-08
-3.51379e-08
3.49432e-08
-4.51287e-08
4.1294e-08
-5.63543e-08
4.74902e-08
-6.87681e-08
5.34496e-08
-8.23128e-08
5.91103e-08
-9.6923e-08
6.44267e-08
-1.12527e-07
6.93666e-08
-1.29047e-07
7.39085e-08
-1.46405e-07
7.80396e-08
-1.64518e-07
8.17545e-08
-1.83304e-07
8.50534e-08
-2.02682e-07
8.7941e-08
-2.22569e-07
9.04259e-08
-2.42888e-07
9.25198e-08
-2.63561e-07
9.42363e-08
-2.84513e-07
9.55913e-08
-3.05675e-07
9.66019e-08
-3.26977e-07
9.72859e-08
-3.48356e-07
9.76622e-08
-3.69752e-07
9.775e-08
-3.91106e-07
9.75685e-08
-4.12368e-07
9.71372e-08
-4.33487e-07
9.64751e-08
-4.54419e-07
9.56012e-08
-4.75122e-07
9.45339e-08
-4.95558e-07
9.32912e-08
-5.15693e-07
9.18904e-08
-5.35498e-07
9.03483e-08
-5.54943e-07
8.86809e-08
-5.74006e-07
8.69034e-08
-5.92665e-07
8.50303e-08
-6.10902e-07
8.30753e-08
-6.28702e-07
8.10513e-08
-6.46052e-07
7.89704e-08
-6.62941e-07
7.68439e-08
-6.79362e-07
7.46822e-08
-6.95308e-07
7.2495e-08
-7.10776e-07
7.02913e-08
-7.25762e-07
6.80792e-08