/*--------------------------------*- C++ -*----------------------------------*\
  =========                 |
  \\      /  F ield         | OpenFOAM: The Open Source CFD Toolbox
   \\    /   O peration     | Website:  https://openfoam.org
    \\  /    A nd           | Version:  7
     \\/     M anipulation  |
\*---------------------------------------------------------------------------*/
FoamFile
{
    version     2.0;
    format      ascii;
    class       surfaceScalarField;
    location    "0.125";
    object      phi;
}
// * * * * * * * * * * * * * * * * * * * * * * * * * * * * * * * * * * * * * //

dimensions      [0 3 -1 0 0 0 0];

internalField   nonuniform List<scalar> 
25360
(
1.14294e-10
-1.14285e-10
3.59446e-10
-2.4516e-10
6.03945e-10
-2.44505e-10
7.64694e-10
-1.60754e-10
7.97591e-10
-3.28906e-11
6.80828e-10
1.16762e-10
4.05785e-10
2.75039e-10
-2.82051e-11
4.33986e-10
-6.17006e-10
5.88802e-10
-1.35361e-09
7.36596e-10
-2.22924e-09
8.75629e-10
-3.23413e-09
1.00489e-09
-4.35798e-09
1.12385e-09
-5.59029e-09
1.2323e-09
-6.92052e-09
1.33023e-09
-8.33831e-09
1.4178e-09
-9.83356e-09
1.49526e-09
-1.13965e-08
1.56294e-09
-1.30177e-08
1.62125e-09
-1.46883e-08
1.67059e-09
-1.63998e-08
1.71142e-09
-1.8144e-08
1.74421e-09
-1.99134e-08
1.76942e-09
-2.17009e-08
1.78754e-09
-2.35e-08
1.79903e-09
-2.53043e-08
1.80437e-09
-2.71084e-08
1.80402e-09
-2.89068e-08
1.79842e-09
-3.06948e-08
1.78802e-09
-3.2468e-08
1.77322e-09
-3.42225e-08
1.75445e-09
-3.59546e-08
1.7321e-09
-3.76611e-08
1.70653e-09
-3.93392e-08
1.67812e-09
-4.09864e-08
1.64718e-09
-4.26004e-08
1.61405e-09
-4.41795e-08
1.57902e-09
-4.57218e-08
1.54239e-09
-4.72262e-08
1.5044e-09
-4.86916e-08
1.46531e-09
-5.01169e-08
1.42536e-09
-5.15017e-08
1.38475e-09
-5.28453e-08
1.34367e-09
-5.41476e-08
1.30231e-09
-5.54085e-08
1.26083e-09
-5.66278e-08
1.21938e-09
-5.78059e-08
1.17808e-09
-5.8943e-08
1.13707e-09
-6.00394e-08
1.09643e-09
-6.10957e-08
1.05628e-09
-6.21124e-08
1.01668e-09
-6.30901e-08
9.77713e-10
-6.40295e-08
9.3943e-10
-6.49314e-08
9.01881e-10
-6.57965e-08
8.65105e-10
-6.66256e-08
8.29129e-10
-6.74196e-08
7.93974e-10
-6.81793e-08
7.59656e-10
-6.89054e-08
7.26177e-10
-6.9599e-08
6.93534e-10
-7.02607e-08
6.61718e-10
-7.08914e-08
6.30716e-10
-7.14919e-08
6.00509e-10
-7.2063e-08
5.71069e-10
-7.26053e-08
5.42366e-10
-7.31197e-08
5.14365e-10
-7.36067e-08
4.87025e-10
-7.4067e-08
4.60302e-10
-7.45012e-08
4.34149e-10
-7.49097e-08
4.08516e-10
-7.5293e-08
3.83351e-10
-7.56516e-08
3.58596e-10
-7.59858e-08
3.34192e-10
-7.62959e-08
3.10074e-10
-7.65821e-08
2.86182e-10
-7.68445e-08
2.62448e-10
-7.70833e-08
2.38806e-10
-7.72985e-08
2.15187e-10
-7.749e-08
1.91521e-10
-7.76578e-08
1.67736e-10
-7.78015e-08
1.43757e-10
-7.7921e-08
1.19512e-10
-7.8016e-08
9.49258e-11
-7.80859e-08
6.99248e-11
-7.81303e-08
4.44334e-11
-7.81487e-08
1.83786e-11
-7.81404e-08
-8.31315e-12
-7.81047e-08
-3.57154e-11
-7.80408e-08
-6.39001e-11
-7.79478e-08
-9.29377e-11
-7.78249e-08
-1.22897e-10
-7.76711e-08
-1.53845e-10
-7.74852e-08
-1.85845e-10
-7.72663e-08
-2.18959e-10
-7.7013e-08
-2.53245e-10
-7.67243e-08
-2.88756e-10
-7.63988e-08
-3.2554e-10
-7.60351e-08
-3.63641e-10
-7.5632e-08
-4.03098e-10
-7.51881e-08
-4.43942e-10
-7.47019e-08
-4.86197e-10
-7.4172e-08
-5.29879e-10
-7.3597e-08
-5.74997e-10
-7.29755e-08
-6.21551e-10
-7.23059e-08
-6.6953e-10
-7.1587e-08
-7.1891e-10
-7.08174e-08
-7.69655e-10
-6.99957e-08
-8.21717e-10
-6.91206e-08
-8.75036e-10
-6.81911e-08
-9.29537e-10
-6.7206e-08
-9.85129e-10
-6.61643e-08
-1.04171e-09
-6.50651e-08
-1.09915e-09
-6.39078e-08
-1.15731e-09
-6.26918e-08
-1.21602e-09
-6.14167e-08
-1.27512e-09
-6.00823e-08
-1.3344e-09
-5.86887e-08
-1.39363e-09
-5.72361e-08
-1.45259e-09
-5.57251e-08
-1.511e-09
-5.41565e-08
-1.56859e-09
-5.25314e-08
-1.62505e-09
-5.08514e-08
-1.68006e-09
-4.91181e-08
-1.73326e-09
-4.73338e-08
-1.7843e-09
-4.5501e-08
-1.83277e-09
-4.36228e-08
-1.87828e-09
-4.17024e-08
-1.9204e-09
-3.97437e-08
-1.95869e-09
-3.7751e-08
-1.99268e-09
-3.57291e-08
-2.0219e-09
-3.36832e-08
-2.04587e-09
-3.16191e-08
-2.06409e-09
-2.95431e-08
-2.07606e-09
-2.74618e-08
-2.08125e-09
-2.53827e-08
-2.07917e-09
-2.33134e-08
-2.06928e-09
-2.12623e-08
-2.05109e-09
-1.92382e-08
-2.02408e-09
-1.72505e-08
-1.98775e-09
-1.53088e-08
-1.94164e-09
-1.34236e-08
-1.88527e-09
-1.16054e-08
-1.81822e-09
-9.86527e-09
-1.74009e-09
-8.21473e-09
-1.65054e-09
-6.66545e-09
-1.54928e-09
-5.22932e-09
-1.43612e-09
-3.91835e-09
-1.31097e-09
-2.74445e-09
-1.17391e-09
-1.71921e-09
-1.02524e-09
-8.536e-10
-8.65607e-10
-1.57457e-10
-6.96143e-10
3.61309e-10
-5.18767e-10
6.97949e-10
-3.36642e-10
8.52954e-10
-1.55008e-10
8.35558e-10
1.73996e-11
6.69564e-10
1.66001e-10
4.03696e-10
2.65872e-10
1.30718e-10
2.72981e-10
1.3072e-10
2.45361e-10
-3.59632e-10
6.33725e-10
-6.33541e-10
9.49542e-10
-5.60315e-10
1.04612e-09
-2.57342e-10
8.27673e-10
1.85556e-10
2.37722e-10
7.06711e-10
-7.52086e-10
1.26485e-09
-2.15077e-09
1.83267e-09
-3.9542e-09
2.39223e-09
-6.1494e-09
2.9318e-09
-8.71751e-09
3.44374e-09
-1.16358e-08
3.92322e-09
-1.48793e-08
4.36732e-09
-1.84215e-08
4.77447e-09
-2.22353e-08
5.14404e-09
-2.62936e-08
5.4761e-09
-3.05695e-08
5.77119e-09
-3.50368e-08
6.03025e-09
-3.967e-08
6.25445e-09
-4.44446e-08
6.44517e-09
-4.93371e-08
6.60392e-09
-5.43252e-08
6.73232e-09
-5.93878e-08
6.83201e-09
-6.4505e-08
6.90472e-09
-6.96581e-08
6.95214e-09
-7.48297e-08
6.97601e-09
-8.00037e-08
6.978e-09
-8.51651e-08
6.9598e-09
-9.03001e-08
6.92303e-09
-9.53961e-08
6.86927e-09
-1.00442e-07
6.80006e-09
-1.05426e-07
6.71687e-09
-1.10341e-07
6.62113e-09
-1.15177e-07
6.51418e-09
-1.19927e-07
6.39733e-09
-1.24585e-07
6.2718e-09
-1.29145e-07
6.13873e-09
-1.33602e-07
5.99922e-09
-1.37951e-07
5.85429e-09
-1.42191e-07
5.70489e-09
-1.46318e-07
5.5519e-09
-1.50329e-07
5.39616e-09
-1.54224e-07
5.23842e-09
-1.58001e-07
5.07937e-09
-1.6166e-07
4.91965e-09
-1.652e-07
4.75985e-09
-1.68623e-07
4.60047e-09
-1.71927e-07
4.44199e-09
-1.75116e-07
4.28483e-09
-1.78189e-07
4.12935e-09
-1.81148e-07
3.97587e-09
-1.83995e-07
3.82467e-09
-1.86732e-07
3.67599e-09
-1.8936e-07
3.53001e-09
-1.91882e-07
3.38689e-09
-1.94299e-07
3.24675e-09
-1.96615e-07
3.10968e-09
-1.98831e-07
2.97574e-09
-2.0095e-07
2.84495e-09
-2.02973e-07
2.7173e-09
-2.04905e-07
2.59278e-09
-2.06745e-07
2.47133e-09
-2.08498e-07
2.35288e-09
-2.10164e-07
2.23732e-09
-2.11746e-07
2.12456e-09
-2.13246e-07
2.01445e-09
-2.14666e-07
1.90684e-09
-2.16007e-07
1.80158e-09
-2.17272e-07
1.69848e-09
-2.1846e-07
1.59735e-09
-2.19575e-07
1.49799e-09
-2.20617e-07
1.40018e-09
-2.21586e-07
1.30369e-09
-2.22484e-07
1.20829e-09
-2.23312e-07
1.11374e-09
-2.24069e-07
1.01978e-09
-2.24756e-07
9.26148e-10
-2.25374e-07
8.3259e-10
-2.25921e-07
7.38832e-10
-2.26398e-07
6.44601e-10
-2.26804e-07
5.49618e-10
-2.27138e-07
4.53601e-10
-2.27399e-07
3.56268e-10
-2.27587e-07
2.57334e-10
-2.27699e-07
1.56515e-10
-2.27734e-07
5.35293e-11
-2.2769e-07
-5.19045e-11
-2.27566e-07
-1.60065e-10
-2.27359e-07
-2.71226e-10
-2.27066e-07
-3.85652e-10
-2.26685e-07
-5.03604e-10
-2.26214e-07
-6.25334e-10
-2.25649e-07
-7.51082e-10
-2.24986e-07
-8.81078e-10
-2.24224e-07
-1.01554e-09
-2.23358e-07
-1.15465e-09
-2.22385e-07
-1.29861e-09
-2.21301e-07
-1.44757e-09
-2.20103e-07
-1.60168e-09
-2.18786e-07
-1.76103e-09
-2.17346e-07
-1.92572e-09
-2.1578e-07
-2.0958e-09
-2.14084e-07
-2.27129e-09
-2.12253e-07
-2.45217e-09
-2.10284e-07
-2.63839e-09
-2.08173e-07
-2.82986e-09
-2.05917e-07
-3.02641e-09
-2.03511e-07
-3.22787e-09
-2.00952e-07
-3.43399e-09
-1.98237e-07
-3.64446e-09
-1.95363e-07
-3.85893e-09
-1.92328e-07
-4.07697e-09
-1.89129e-07
-4.29809e-09
-1.85764e-07
-4.52175e-09
-1.82233e-07
-4.74731e-09
-1.78534e-07
-4.97409e-09
-1.74667e-07
-5.2013e-09
-1.70633e-07
-5.42809e-09
-1.66432e-07
-5.65354e-09
-1.62066e-07
-5.87664e-09
-1.57538e-07
-6.0963e-09
-1.52852e-07
-6.31135e-09
-1.48012e-07
-6.52055e-09
-1.43022e-07
-6.72256e-09
-1.37891e-07
-6.91599e-09
-1.32624e-07
-7.09935e-09
-1.27231e-07
-7.27109e-09
-1.21722e-07
-7.42961e-09
-1.16107e-07
-7.57322e-09
-1.104e-07
-7.70018e-09
-1.04613e-07
-7.80871e-09
-9.87621e-08
-7.89699e-09
-9.2863e-08
-7.96315e-09
-8.69338e-08
-8.0053e-09
-8.09935e-08
-8.02154e-09
-7.50627e-08
-8.00996e-09
-6.91633e-08
-7.96867e-09
-6.33186e-08
-7.8958e-09
-5.75532e-08
-7.78952e-09
-5.18928e-08
-7.64805e-09
-4.63648e-08
-7.46972e-09
-4.09971e-08
-7.25293e-09
-3.58191e-08
-6.99626e-09
-3.08607e-08
-6.69845e-09
-2.61528e-08
-6.35848e-09
-2.17264e-08
-5.97565e-09
-1.76129e-08
-5.54964e-09
-1.38431e-08
-5.08071e-09
-1.04472e-08
-4.56982e-09
-7.4535e-09
-4.01896e-09
-4.88755e-09
-3.43155e-09
-2.77064e-09
-2.81305e-09
-1.11746e-09
-2.17194e-09
6.70857e-11
-1.52118e-09
7.92614e-10
-8.80533e-10
1.09017e-09
-2.80154e-10
1.02212e-09
2.34057e-10
6.94982e-10
5.93008e-10
2.73005e-10
6.94964e-10
4.03726e-10
2.45705e-10
-6.05341e-10
5.63197e-10
-9.51017e-10
6.97357e-10
-6.94485e-10
4.74274e-10
-3.42543e-11
-2.2571e-10
8.8554e-10
-1.47845e-09
1.95945e-09
-3.3258e-09
3.1122e-09
-5.78431e-09
4.29117e-09
-8.85198e-09
5.4599e-09
-1.25135e-08
6.5933e-09
-1.6744e-08
7.67431e-09
-2.15124e-08
8.69157e-09
-2.67829e-08
9.63778e-09
-3.2517e-08
1.05086e-08
-3.86749e-08
1.13019e-08
-4.52158e-08
1.2017e-08
-5.20992e-08
1.26546e-08
-5.92851e-08
1.32161e-08
-6.67342e-08
1.37035e-08
-7.44086e-08
1.41196e-08
-8.2272e-08
1.44673e-08
-9.02893e-08
1.47497e-08
-9.84276e-08
1.49703e-08
-1.06656e-07
1.51326e-08
-1.14944e-07
1.52401e-08
-1.23264e-07
1.52965e-08
-1.31591e-07
1.53053e-08
-1.39901e-07
1.527e-08
-1.48172e-07
1.51941e-08
-1.56384e-07
1.5081e-08
-1.64518e-07
1.4934e-08
-1.72557e-07
1.47562e-08
-1.80487e-07
1.45508e-08
-1.88294e-07
1.43206e-08
-1.95965e-07
1.40685e-08
-2.0349e-07
1.3797e-08
-2.1086e-07
1.35088e-08
-2.18067e-07
1.32062e-08
-2.25104e-07
1.28913e-08
-2.31965e-07
1.25664e-08
-2.38647e-07
1.22333e-08
-2.45144e-07
1.18938e-08
-2.51456e-07
1.15496e-08
-2.57579e-07
1.12023e-08
-2.63512e-07
1.08531e-08
-2.69256e-07
1.05035e-08
-2.7481e-07
1.01546e-08
-2.80175e-07
9.80734e-09
-2.85353e-07
9.46272e-09
-2.90345e-07
9.12153e-09
-2.95154e-07
8.78449e-09
-2.99781e-07
8.45222e-09
-3.04231e-07
8.12524e-09
-3.08505e-07
7.80399e-09
-3.12607e-07
7.48882e-09
-3.1654e-07
7.18e-09
-3.20308e-07
6.87774e-09
-3.23914e-07
6.58218e-09
-3.27363e-07
6.29336e-09
-3.30657e-07
6.01132e-09
-3.338e-07
5.73598e-09
-3.36796e-07
5.46726e-09
-3.39648e-07
5.20499e-09
-3.4236e-07
4.94897e-09
-3.44934e-07
4.69897e-09
-3.47374e-07
4.4547e-09
-3.49683e-07
4.21584e-09
-3.51864e-07
3.98204e-09
-3.53918e-07
3.7529e-09
-3.55849e-07
3.52803e-09
-3.57658e-07
3.30696e-09
-3.59347e-07
3.08923e-09
-3.60918e-07
2.87436e-09
-3.62371e-07
2.66184e-09
-3.63709e-07
2.45113e-09
-3.6493e-07
2.24168e-09
-3.66037e-07
2.03294e-09
-3.67029e-07
1.82433e-09
-3.67905e-07
1.61526e-09
-3.68666e-07
1.40514e-09
-3.6931e-07
1.19336e-09
-3.69835e-07
9.79312e-10
-3.70242e-07
7.62381e-10
-3.70526e-07
5.41952e-10
-3.70687e-07
3.17411e-10
-3.70722e-07
8.8142e-11
-3.70627e-07
-1.46462e-10
-3.704e-07
-3.87002e-10
-3.70037e-07
-6.34066e-10
-3.69535e-07
-8.88232e-10
-3.68888e-07
-1.15006e-09
-3.68094e-07
-1.42009e-09
-3.67146e-07
-1.69884e-09
-3.6604e-07
-1.9868e-09
-3.64771e-07
-2.28443e-09
-3.63334e-07
-2.59214e-09
-3.61722e-07
-2.91033e-09
-3.5993e-07
-3.23933e-09
-3.57952e-07
-3.57943e-09
-3.55783e-07
-3.93085e-09
-3.53415e-07
-4.29377e-09
-3.50842e-07
-4.66829e-09
-3.48059e-07
-5.05445e-09
-3.45059e-07
-5.45217e-09
-3.41836e-07
-5.86134e-09
-3.38384e-07
-6.2817e-09
-3.34698e-07
-6.71294e-09
-3.30771e-07
-7.15462e-09
-3.26599e-07
-7.60618e-09
-3.22176e-07
-8.06695e-09
-3.17499e-07
-8.53612e-09
-3.12563e-07
-9.01276e-09
-3.07365e-07
-9.4958e-09
-3.01903e-07
-9.984e-09
-2.96175e-07
-1.0476e-08
-2.90178e-07
-1.09702e-08
-2.83915e-07
-1.14651e-08
-2.77384e-07
-1.19586e-08
-2.70589e-07
-1.24488e-08
-2.63532e-07
-1.29334e-08
-2.56218e-07
-1.34102e-08
-2.48653e-07
-1.38765e-08
-2.40844e-07
-1.43297e-08
-2.328e-07
-1.47668e-08
-2.24531e-07
-1.51848e-08
-2.1605e-07
-1.55806e-08
-2.0737e-07
-1.59507e-08
-1.98508e-07
-1.62917e-08
-1.89481e-07
-1.66e-08
-1.8031e-07
-1.68718e-08
-1.71015e-07
-1.71032e-08
-1.61622e-07
-1.72905e-08
-1.52155e-07
-1.74295e-08
-1.42644e-07
-1.75163e-08
-1.33119e-07
-1.75469e-08
-1.23612e-07
-1.75171e-08
-1.14157e-07
-1.7423e-08
-1.04792e-07
-1.72608e-08
-9.55553e-08
-1.70265e-08
-8.64869e-08
-1.67165e-08
-7.76291e-08
-1.63275e-08
-6.90259e-08
-1.58562e-08
-6.07222e-08
-1.52999e-08
-5.27644e-08
-1.46563e-08
-4.51992e-08
-1.39236e-08
-3.8074e-08
-1.31009e-08
-3.14355e-08
-1.21881e-08
-2.53295e-08
-1.11866e-08
-1.97999e-08
-1.00994e-08
-1.48871e-08
-8.9318e-09
-1.06264e-08
-7.69226e-09
-7.04573e-09
-6.39367e-09
-4.16258e-09
-5.05508e-09
-1.97946e-09
-3.70429e-09
-4.7834e-10
-2.38164e-09
3.86971e-10
-1.14546e-09
7.00579e-10
-7.95485e-11
5.95702e-10
6.97889e-10
2.66762e-10
1.02391e-09
6.70492e-10
1.63677e-10
-7.69009e-10
2.64533e-10
-1.05188e-09
4.39298e-11
-4.73877e-10
-6.78452e-10
6.8812e-10
-2.02932e-09
2.2364e-09
-4.09186e-09
4.02199e-09
-6.91417e-09
5.93451e-09
-1.05168e-08
7.89376e-09
-1.48989e-08
9.84205e-09
-2.00438e-08
1.17382e-08
-2.59227e-08
1.35532e-08
-3.24983e-08
1.52671e-08
-3.9727e-08
1.68665e-08
-4.75613e-08
1.83429e-08
-5.59511e-08
1.96917e-08
-6.48449e-08
2.09108e-08
-7.41908e-08
2.20005e-08
-8.39372e-08
2.29625e-08
-9.40335e-08
2.37999e-08
-1.0443e-07
2.45164e-08
-1.1508e-07
2.51169e-08
-1.25937e-07
2.56064e-08
-1.36957e-07
2.59903e-08
-1.48098e-07
2.62744e-08
-1.59323e-07
2.64646e-08
-1.70593e-07
2.65669e-08
-1.81875e-07
2.65873e-08
-1.93137e-07
2.65316e-08
-2.04349e-07
2.64058e-08
-2.15483e-07
2.62155e-08
-2.26516e-07
2.59664e-08
-2.37423e-07
2.56639e-08
-2.48186e-07
2.53133e-08
-2.58785e-07
2.49194e-08
-2.69203e-07
2.44871e-08
-2.79427e-07
2.4021e-08
-2.89444e-07
2.35254e-08
-2.99242e-07
2.30044e-08
-3.08813e-07
2.24619e-08
-3.18148e-07
2.19013e-08
-3.27241e-07
2.13262e-08
-3.36086e-07
2.07396e-08
-3.44681e-07
2.01444e-08
-3.53022e-07
1.95432e-08
-3.61108e-07
1.89386e-08
-3.68937e-07
1.83327e-08
-3.7651e-07
1.77276e-08
-3.83828e-07
1.7125e-08
-3.90891e-07
1.65266e-08
-3.97704e-07
1.59338e-08
-4.04267e-07
1.53479e-08
-4.10585e-07
1.47699e-08
-4.1666e-07
1.42007e-08
-4.22498e-07
1.36413e-08
-4.28101e-07
1.3092e-08
-4.33474e-07
1.25536e-08
-4.38623e-07
1.20263e-08
-4.43551e-07
1.15104e-08
-4.48264e-07
1.10059e-08
-4.52765e-07
1.0513e-08
-4.57061e-07
1.00316e-08
-4.61155e-07
9.56147e-09
-4.65053e-07
9.10236e-09
-4.68758e-07
8.65395e-09
-4.72274e-07
8.21584e-09
-4.75607e-07
7.78753e-09
-4.7876e-07
7.36849e-09
-4.81736e-07
6.95812e-09
-4.84539e-07
6.55574e-09
-4.87171e-07
6.16065e-09
-4.89637e-07
5.77209e-09
-4.91937e-07
5.38925e-09
-4.94074e-07
5.0113e-09
-4.96049e-07
4.63734e-09
-4.97864e-07
4.26648e-09
-4.9952e-07
3.89777e-09
-5.01018e-07
3.53024e-09
-5.02356e-07
3.1629e-09
-5.03536e-07
2.79475e-09
-5.04555e-07
2.42475e-09
-5.05414e-07
2.05187e-09
-5.0611e-07
1.67505e-09
-5.06641e-07
1.29324e-09
-5.07004e-07
9.0538e-10
-5.07197e-07
5.10414e-10
-5.07216e-07
1.07288e-10
-5.07058e-07
-3.05042e-10
-5.06717e-07
-7.27603e-10
-5.0619e-07
-1.16141e-09
-5.0547e-07
-1.60744e-09
-5.04554e-07
-2.06666e-09
-5.03434e-07
-2.53999e-09
-5.02104e-07
-3.02831e-09
-5.00559e-07
-3.53245e-09
-4.9879e-07
-4.05318e-09
-4.96791e-07
-4.59123e-09
-4.94554e-07
-5.14724e-09
-4.92072e-07
-5.72177e-09
-4.89336e-07
-6.31529e-09
-4.86338e-07
-6.92819e-09
-4.83071e-07
-7.56074e-09
-4.79527e-07
-8.21309e-09
-4.75696e-07
-8.88527e-09
-4.71571e-07
-9.57717e-09
-4.67144e-07
-1.02885e-08
-4.62406e-07
-1.10189e-08
-4.57352e-07
-1.17677e-08
-4.51972e-07
-1.25342e-08
-4.46261e-07
-1.33173e-08
-4.40212e-07
-1.41159e-08
-4.3382e-07
-1.49286e-08
-4.27079e-07
-1.57537e-08
-4.19985e-07
-1.65894e-08
-4.12535e-07
-1.74335e-08
-4.04728e-07
-1.82837e-08
-3.96561e-07
-1.91372e-08
-3.88035e-07
-1.99911e-08
-3.79151e-07
-2.08422e-08
-3.69913e-07
-2.1687e-08
-3.60325e-07
-2.25218e-08
-3.50393e-07
-2.33423e-08
-3.40125e-07
-2.41442e-08
-3.29532e-07
-2.49229e-08
-3.18625e-07
-2.56734e-08
-3.07419e-07
-2.63905e-08
-2.95931e-07
-2.70686e-08
-2.8418e-07
-2.77021e-08
-2.72187e-07
-2.82849e-08
-2.59976e-07
-2.8811e-08
-2.47574e-07
-2.92739e-08
-2.3501e-07
-2.96671e-08
-2.22316e-07
-2.99839e-08
-2.09528e-07
-3.02176e-08
-1.96683e-07
-3.03613e-08
-1.83822e-07
-3.04084e-08
-1.70987e-07
-3.03519e-08
-1.58225e-07
-3.01852e-08
-1.45584e-07
-2.99019e-08
-1.33115e-07
-2.94955e-08
-1.20871e-07
-2.89603e-08
-1.08908e-07
-2.82905e-08
-9.72827e-08
-2.74814e-08
-8.60542e-08
-2.65284e-08
-7.52821e-08
-2.54284e-08
-6.50268e-08
-2.41789e-08
-5.53488e-08
-2.2779e-08
-4.63073e-08
-2.12296e-08
-3.79601e-08
-1.95339e-08
-3.03612e-08
-1.76983e-08
-2.35602e-08
-1.57328e-08
-1.75993e-08
-1.36532e-08
-1.2511e-08
-1.1482e-08
-8.31427e-09
-9.25179e-09
-5.01024e-09
-7.00833e-09
-2.57628e-09
-4.8156e-09
-9.59147e-10
-2.76259e-09
-6.64637e-11
-9.72227e-10
2.4265e-10
3.8878e-10
1.6888e-10
1.09767e-09
8.39373e-10
3.76883e-11
-8.06714e-10
-1.74295e-10
-8.399e-10
-8.70673e-10
2.22499e-10
-2.22146e-09
2.03891e-09
-4.34841e-09
4.36334e-09
-7.333e-09
7.00659e-09
-1.12232e-08
9.82471e-09
-1.60395e-08
1.27101e-08
-2.17805e-08
1.5583e-08
-2.84273e-08
1.8385e-08
-3.59478e-08
2.10737e-08
-4.42997e-08
2.3619e-08
-5.34334e-08
2.60002e-08
-6.3294e-08
2.82036e-08
-7.38234e-08
3.0221e-08
-8.49612e-08
3.20486e-08
-9.66462e-08
3.36855e-08
-1.08817e-07
3.51336e-08
-1.21414e-07
3.63966e-08
-1.34377e-07
3.74798e-08
-1.4765e-07
3.83894e-08
-1.61176e-07
3.91327e-08
-1.74903e-07
3.97175e-08
-1.88781e-07
4.01521e-08
-2.02762e-07
4.04451e-08
-2.168e-07
4.06053e-08
-2.30854e-07
4.06414e-08
-2.44885e-07
4.05622e-08
-2.58855e-07
4.03764e-08
-2.72733e-07
4.00927e-08
-2.86485e-07
3.97193e-08
-3.00086e-07
3.92644e-08
-3.13508e-07
3.87358e-08
-3.2673e-07
3.81411e-08
-3.3973e-07
3.74875e-08
-3.52491e-07
3.67819e-08
-3.64997e-07
3.60308e-08
-3.77233e-07
3.52405e-08
-3.89188e-07
3.44168e-08
-4.00851e-07
3.35651e-08
-4.12216e-07
3.26906e-08
-4.23274e-07
3.17981e-08
-4.34022e-07
3.08919e-08
-4.44455e-07
2.9976e-08
-4.5457e-07
2.90544e-08
-4.64368e-07
2.81303e-08
-4.73847e-07
2.72067e-08
-4.83009e-07
2.62866e-08
-4.91854e-07
2.53724e-08
-5.00387e-07
2.44663e-08
-5.08609e-07
2.35702e-08
-5.16525e-07
2.26858e-08
-5.24139e-07
2.18145e-08
-5.31455e-07
2.09576e-08
-5.38479e-07
2.01159e-08
-5.45216e-07
1.92904e-08
-5.51671e-07
1.84815e-08
-5.5785e-07
1.76897e-08
-5.6376e-07
1.69151e-08
-5.69404e-07
1.61579e-08
-5.74791e-07
1.54179e-08
-5.79924e-07
1.4695e-08
-5.84811e-07
1.39886e-08
-5.89455e-07
1.32983e-08
-5.93863e-07
1.26236e-08
-5.98039e-07
1.19637e-08
-6.01988e-07
1.13178e-08
-6.05715e-07
1.06849e-08
-6.09223e-07
1.00641e-08
-6.12517e-07
9.45424e-09
-6.15599e-07
8.85428e-09
-6.18473e-07
8.26294e-09
-6.2114e-07
7.67896e-09
-6.23604e-07
7.10101e-09
-6.25865e-07
6.52771e-09
-6.27925e-07
5.95763e-09
-6.29784e-07
5.3893e-09
-6.31442e-07
4.82122e-09
-6.329e-07
4.25187e-09
-6.34154e-07
3.67968e-09
-6.35206e-07
3.10309e-09
-6.36051e-07
2.5205e-09
-6.36688e-07
1.93032e-09
-6.37114e-07
1.33094e-09
-6.37324e-07
7.20766e-10
-6.37315e-07
9.8202e-11
-6.37082e-07
-5.38324e-10
-6.36619e-07
-1.19037e-09
-6.35921e-07
-1.85945e-09
-6.34981e-07
-2.54706e-09
-6.33793e-07
-3.25464e-09
-6.3235e-07
-3.98356e-09
-6.30643e-07
-4.73516e-09
-6.28665e-07
-5.51068e-09
-6.26407e-07
-6.31128e-09
-6.2386e-07
-7.13802e-09
-6.21015e-07
-7.99187e-09
-6.17863e-07
-8.87365e-09
-6.14395e-07
-9.78406e-09
-6.10599e-07
-1.07237e-08
-6.06467e-07
-1.16928e-08
-6.01988e-07
-1.26918e-08
-5.97153e-07
-1.37205e-08
-5.91952e-07
-1.47788e-08
-5.86374e-07
-1.58663e-08
-5.8041e-07
-1.69822e-08
-5.74053e-07
-1.81257e-08
-5.67291e-07
-1.92955e-08
-5.60118e-07
-2.04901e-08
-5.52527e-07
-2.17077e-08
-5.44509e-07
-2.29461e-08
-5.3606e-07
-2.42028e-08
-5.27175e-07
-2.54748e-08
-5.17849e-07
-2.6759e-08
-5.08081e-07
-2.80517e-08
-4.97869e-07
-2.93489e-08
-4.87214e-07
-3.0646e-08
-4.76119e-07
-3.19381e-08
-4.64586e-07
-3.32199e-08
-4.52622e-07
-3.44857e-08
-4.40235e-07
-3.57292e-08
-4.27435e-07
-3.69439e-08
-4.14236e-07
-3.81225e-08
-4.00651e-07
-3.92577e-08
-3.867e-07
-4.03415e-08
-3.72403e-07
-4.13657e-08
-3.57783e-07
-4.23217e-08
-3.42868e-07
-4.32003e-08
-3.27687e-07
-4.39924e-08
-3.12272e-07
-4.46883e-08
-2.96661e-07
-4.52784e-08
-2.80892e-07
-4.57525e-08
-2.65009e-07
-4.61007e-08
-2.49058e-07
-4.63128e-08
-2.33087e-07
-4.63787e-08
-2.17151e-07
-4.62883e-08
-2.01304e-07
-4.60319e-08
-1.85606e-07
-4.55998e-08
-1.70119e-07
-4.49829e-08
-1.54906e-07
-4.41727e-08
-1.40036e-07
-4.31612e-08
-1.25576e-07
-4.19416e-08
-1.11596e-07
-4.05078e-08
-9.81689e-08
-3.88556e-08
-8.53655e-08
-3.69823e-08
-7.32571e-08
-3.48874e-08
-6.19133e-08
-3.25733e-08
-5.14012e-08
-3.0046e-08
-4.17834e-08
-2.73161e-08
-3.31163e-08
-2.43999e-08
-2.54478e-08
-2.13217e-08
-1.88141e-08
-1.81157e-08
-1.32365e-08
-1.48294e-08
-8.71677e-09
-1.15281e-08
-5.23213e-09
-8.30024e-09
-2.72938e-09
-5.26534e-09
-1.11808e-09
-2.58353e-09
-2.63261e-10
-4.66034e-10
2.31866e-11
8.11227e-10
8.62553e-10
-1.10621e-10
-6.96085e-10
-6.93994e-10
-2.56528e-10
-1.94588e-09
1.47438e-09
-4.01404e-09
4.10707e-09
-7.00625e-09
7.35555e-09
-1.09952e-08
1.09956e-08
-1.60235e-08
1.48529e-08
-2.21076e-08
1.87942e-08
-2.9243e-08
2.27184e-08
-3.74076e-08
2.65496e-08
-4.65654e-08
3.02315e-08
-5.66696e-08
3.37232e-08
-6.76652e-08
3.69958e-08
-7.94913e-08
4.00297e-08
-9.20829e-08
4.28126e-08
-1.05372e-07
4.5338e-08
-1.1929e-07
4.76038e-08
-1.33768e-07
4.96115e-08
-1.48737e-07
5.13655e-08
-1.64129e-07
5.2872e-08
-1.79879e-07
5.41394e-08
-1.95924e-07
5.51769e-08
-2.12201e-07
5.59948e-08
-2.28653e-07
5.66043e-08
-2.45225e-07
5.7017e-08
-2.61864e-07
5.72445e-08
-2.78522e-07
5.7299e-08
-2.95152e-07
5.71925e-08
-3.11713e-07
5.69368e-08
-3.28164e-07
5.65438e-08
-3.44469e-07
5.6025e-08
-3.60597e-07
5.53917e-08
-3.76516e-07
5.46547e-08
-3.92199e-07
5.38245e-08
-4.07623e-07
5.29111e-08
-4.22765e-07
5.19242e-08
-4.37607e-07
5.08729e-08
-4.52133e-07
4.97659e-08
-4.66327e-07
4.86113e-08
-4.80179e-07
4.74168e-08
-4.93678e-07
4.61896e-08
-5.06816e-07
4.49363e-08
-5.19587e-07
4.36632e-08
-5.31987e-07
4.23759e-08
-5.44013e-07
4.10798e-08
-5.55662e-07
3.97796e-08
-5.66935e-07
3.84796e-08
-5.77832e-07
3.71838e-08
-5.88355e-07
3.58958e-08
-5.98508e-07
3.46185e-08
-6.08292e-07
3.33548e-08
-6.17714e-07
3.21071e-08
-6.26777e-07
3.08774e-08
-6.35486e-07
2.96673e-08
-6.43849e-07
2.84784e-08
-6.5187e-07
2.73116e-08
-6.59556e-07
2.61679e-08
-6.66915e-07
2.50479e-08
-6.73951e-07
2.39517e-08
-6.80673e-07
2.28797e-08
-6.87086e-07
2.18315e-08
-6.93199e-07
2.0807e-08
-6.99016e-07
1.98056e-08
-7.04544e-07
1.88267e-08
-7.0979e-07
1.78693e-08
-7.14758e-07
1.69326e-08
-7.19456e-07
1.60153e-08
-7.23887e-07
1.51162e-08
-7.28057e-07
1.42339e-08
-7.3197e-07
1.33669e-08
-7.35629e-07
1.25137e-08
-7.39039e-07
1.16724e-08
-7.42201e-07
1.08414e-08
-7.45119e-07
1.00188e-08
-7.47794e-07
9.20264e-09
-7.50227e-07
8.39094e-09
-7.52419e-07
7.58165e-09
-7.54371e-07
6.77267e-09
-7.56081e-07
5.96186e-09
-7.57548e-07
5.14706e-09
-7.58771e-07
4.32606e-09
-7.59747e-07
3.49665e-09
-7.60474e-07
2.65658e-09
-7.60946e-07
1.80364e-09
-7.61161e-07
9.35575e-10
-7.61113e-07
5.01799e-11
-7.60797e-07
-8.54743e-10
-7.60206e-07
-1.78136e-09
-7.59333e-07
-2.73178e-09
-7.58172e-07
-3.70808e-09
-7.56715e-07
-4.71226e-09
-7.54952e-07
-5.74623e-09
-7.52875e-07
-6.81184e-09
-7.50475e-07
-7.91079e-09
-7.47742e-07
-9.0447e-09
-7.44665e-07
-1.0215e-08
-7.41234e-07
-1.14231e-08
-7.37437e-07
-1.267e-08
-7.33265e-07
-1.39568e-08
-7.28704e-07
-1.52841e-08
-7.23744e-07
-1.66525e-08
-7.18374e-07
-1.80621e-08
-7.12581e-07
-1.95131e-08
-7.06355e-07
-2.10051e-08
-6.99684e-07
-2.25374e-08
-6.92557e-07
-2.41091e-08
-6.84964e-07
-2.57188e-08
-6.76895e-07
-2.73648e-08
-6.6834e-07
-2.90448e-08
-6.59291e-07
-3.07564e-08
-6.49741e-07
-3.24964e-08
-6.39683e-07
-3.42613e-08
-6.2911e-07
-3.6047e-08
-6.18021e-07
-3.78489e-08
-6.0641e-07
-3.96619e-08
-5.94279e-07
-4.14803e-08
-5.81627e-07
-4.32978e-08
-5.68458e-07
-4.51076e-08
-5.54776e-07
-4.69021e-08
-5.40588e-07
-4.86733e-08
-5.25905e-07
-5.04125e-08
-5.10738e-07
-5.21104e-08
-4.95103e-07
-5.37573e-08
-4.79019e-07
-5.53426e-08
-4.62505e-07
-5.68553e-08
-4.45586e-07
-5.8284e-08
-4.28292e-07
-5.96166e-08
-4.10651e-07
-6.08406e-08
-3.927e-07
-6.19432e-08
-3.74478e-07
-6.2911e-08
-3.56026e-07
-6.37306e-08
-3.3739e-07
-6.43882e-08
-3.18621e-07
-6.48699e-08
-2.99772e-07
-6.51618e-08
-2.809e-07
-6.525e-08
-2.62068e-07
-6.51207e-08
-2.43339e-07
-6.47607e-08
-2.24782e-07
-6.41569e-08
-2.06468e-07
-6.32971e-08
-1.88471e-07
-6.21698e-08
-1.70867e-07
-6.07647e-08
-1.53736e-07
-5.90726e-08
-1.37158e-07
-5.70862e-08
-1.21213e-07
-5.48003e-08
-1.05983e-07
-5.2212e-08
-9.15489e-08
-4.9322e-08
-7.79877e-08
-4.61344e-08
-6.53748e-08
-4.26589e-08
-5.37798e-08
-3.89111e-08
-4.32652e-08
-3.49145e-08
-3.3884e-08
-3.07029e-08
-2.56767e-08
-2.63229e-08
-1.86682e-08
-2.18379e-08
-1.28636e-08
-1.73327e-08
-8.24432e-09
-1.29195e-08
-4.76317e-09
-8.74649e-09
-2.33957e-09
-5.00714e-09
-8.5457e-10
-1.95103e-09
-1.4586e-10
1.02519e-10
7.1669e-10
-2.68824e-10
-4.27263e-10
-1.2558e-09
7.30446e-10
-3.11156e-09
3.33015e-09
-5.95437e-09
6.94987e-09
-9.87161e-09
1.12728e-08
-1.49219e-08
1.60459e-08
-2.11377e-08
2.10687e-08
-2.85286e-08
2.61851e-08
-3.7084e-08
3.12739e-08
-4.67772e-08
3.62428e-08
-5.75673e-08
4.10216e-08
-6.94028e-08
4.55587e-08
-8.22236e-08
4.98166e-08
-9.59632e-08
5.37693e-08
-1.10551e-07
5.74e-08
-1.25912e-07
6.06991e-08
-1.41971e-07
6.36631e-08
-1.58652e-07
6.62928e-08
-1.7588e-07
6.8593e-08
-1.93579e-07
7.0571e-08
-2.11676e-07
7.22369e-08
-2.30102e-07
7.36022e-08
-2.48787e-07
7.46799e-08
-2.67666e-07
7.5484e-08
-2.86679e-07
7.60293e-08
-3.05765e-07
7.6331e-08
-3.24871e-07
7.64044e-08
-3.43944e-07
7.62653e-08
-3.62936e-07
7.59289e-08
-3.81803e-07
7.54108e-08
-4.00504e-07
7.4726e-08
-4.19001e-07
7.38891e-08
-4.37261e-07
7.29145e-08
-4.55252e-07
7.18158e-08
-4.72948e-07
7.06064e-08
-4.90322e-07
6.92988e-08
-5.07354e-07
6.79052e-08
-5.24026e-07
6.6437e-08
-5.40319e-07
6.49049e-08
-5.56221e-07
6.33192e-08
-5.71721e-07
6.16892e-08
-5.86809e-07
6.0024e-08
-6.01477e-07
5.83317e-08
-6.15721e-07
5.66199e-08
-6.29537e-07
5.48956e-08
-6.42923e-07
5.31651e-08
-6.55877e-07
5.14343e-08
-6.68402e-07
4.97085e-08
-6.80498e-07
4.79922e-08
-6.9217e-07
4.62897e-08
-7.03419e-07
4.46047e-08
-7.14253e-07
4.29403e-08
-7.24675e-07
4.12992e-08
-7.34691e-07
3.96839e-08
-7.44309e-07
3.8096e-08
-7.53534e-07
3.65373e-08
-7.62375e-07
3.50087e-08
-7.70839e-07
3.35112e-08
-7.78932e-07
3.20451e-08
-7.86663e-07
3.06106e-08
-7.94039e-07
2.92076e-08
-8.01067e-07
2.78356e-08
-8.07756e-07
2.64941e-08
-8.14111e-07
2.51822e-08
-8.20141e-07
2.38987e-08
-8.25851e-07
2.26423e-08
-8.31247e-07
2.14116e-08
-8.36336e-07
2.02049e-08
-8.41122e-07
1.90204e-08
-8.45611e-07
1.7856e-08
-8.49807e-07
1.67098e-08
-8.53714e-07
1.55794e-08
-8.57335e-07
1.44624e-08
-8.60673e-07
1.33565e-08
-8.6373e-07
1.22591e-08
-8.66506e-07
1.11676e-08
-8.69004e-07
1.00792e-08
-8.71222e-07
8.99115e-09
-8.73161e-07
7.90068e-09
-8.74819e-07
6.80488e-09
-8.76194e-07
5.70086e-09
-8.77283e-07
4.58568e-09
-8.78083e-07
3.4564e-09
-8.78589e-07
2.31006e-09
-8.78797e-07
1.14373e-09
-8.78701e-07
-4.55329e-11
-8.78296e-07
-1.26061e-09
-8.77573e-07
-2.50435e-09
-8.76525e-07
-3.77954e-09
-8.75144e-07
-5.08891e-09
-8.73421e-07
-6.43508e-09
-8.71347e-07
-7.82057e-09
-8.68911e-07
-9.24778e-09
-8.66103e-07
-1.0719e-08
-8.62911e-07
-1.22362e-08
-8.59325e-07
-1.38015e-08
-8.55331e-07
-1.54165e-08
-8.50919e-07
-1.70826e-08
-8.46074e-07
-1.88011e-08
-8.40786e-07
-2.05729e-08
-8.35039e-07
-2.23987e-08
-8.28823e-07
-2.42788e-08
-8.22123e-07
-2.6213e-08
-8.14927e-07
-2.8201e-08
-8.07223e-07
-3.02419e-08
-7.98997e-07
-3.23342e-08
-7.9024e-07
-3.44763e-08
-7.80939e-07
-3.66657e-08
-7.71084e-07
-3.88995e-08
-7.60667e-07
-4.11743e-08
-7.49677e-07
-4.34859e-08
-7.38109e-07
-4.58297e-08
-7.25955e-07
-4.82002e-08
-7.13213e-07
-5.05913e-08
-6.99879e-07
-5.29962e-08
-6.85952e-07
-5.54073e-08
-6.71433e-07
-5.78163e-08
-6.56327e-07
-6.02142e-08
-6.40638e-07
-6.25909e-08
-6.24375e-07
-6.4936e-08
-6.0755e-07
-6.72378e-08
-5.90176e-07
-6.94842e-08
-5.72271e-07
-7.16622e-08
-5.53856e-07
-7.3758e-08
-5.34954e-07
-7.57571e-08
-5.15594e-07
-7.76443e-08
-4.95806e-07
-7.9404e-08
-4.75627e-07
-8.10196e-08
-4.55096e-07
-8.24743e-08
-4.34257e-07
-8.37506e-08
-4.13156e-07
-8.4831e-08
-3.91847e-07
-8.56974e-08
-3.70385e-07
-8.63317e-08
-3.48831e-07
-8.67158e-08
-3.27249e-07
-8.68316e-08
-3.05709e-07
-8.66614e-08
-2.84281e-07
-8.6188e-08
-2.63044e-07
-8.53947e-08
-2.42075e-07
-8.42659e-08
-2.21458e-07
-8.27871e-08
-2.01277e-07
-8.09452e-08
-1.8162e-07
-7.87291e-08
-1.62577e-07
-7.613e-08
-1.44235e-07
-7.31418e-08
-1.26685e-07
-6.9762e-08
-1.10015e-07
-6.59922e-08
-9.43098e-08
-6.18394e-08
-7.96519e-08
-5.73169e-08
-6.6117e-08
-5.2446e-08
-5.37734e-08
-4.7258e-08
-4.26797e-08
-4.17967e-08
-3.28814e-08
-3.61212e-08
-2.44088e-08
-3.03105e-08
-1.72733e-08
-2.44682e-08
-1.14641e-08
-1.87287e-08
-6.9451e-09
-1.32655e-08
-3.65154e-09
-8.3007e-09
-1.48749e-09
-4.11508e-09
-3.24286e-10
-1.06069e-09
3.92407e-10
-4.29656e-10
2.39058e-12
-1.83485e-09
2.13564e-09
-4.32014e-09
5.81544e-09
-7.97057e-09
1.06003e-08
-1.28492e-08
1.61514e-08
-1.89965e-08
2.21932e-08
-2.64316e-08
2.85038e-08
-3.51538e-08
3.49072e-08
-4.51447e-08
4.12649e-08
-5.63708e-08
4.74688e-08
-6.87855e-08
5.34364e-08
-8.23319e-08
5.91051e-08
-9.69445e-08
6.44292e-08
-1.12551e-07
6.93761e-08
-1.29076e-07
7.39245e-08
-1.46438e-07
7.80616e-08
-1.64557e-07
8.1782e-08
-1.8335e-07
8.50858e-08
-2.02735e-07
8.79779e-08
-2.22631e-07
9.0467e-08
-2.42959e-07
9.25646e-08
-2.63641e-07
9.42848e-08
-2.84605e-07
9.56431e-08
-3.05777e-07
9.66566e-08
-3.27091e-07
9.73436e-08
-3.48483e-07
9.77226e-08
-3.69892e-07
9.78129e-08
-3.9126e-07
9.76339e-08
-4.12536e-07
9.72049e-08
-4.3367e-07
9.6545e-08
-4.54618e-07
9.56733e-08
-4.75337e-07
9.4608e-08
-4.95789e-07
9.33672e-08
-5.15942e-07
9.19683e-08
-5.35763e-07
9.0428e-08
-5.55227e-07
8.87622e-08
-5.74308e-07
8.69863e-08
-5.92985e-07
8.51147e-08
-6.11242e-07
8.31611e-08
-6.29061e-07
8.11384e-08
-6.4643e-07
7.90588e-08
-6.6334e-07
7.69334e-08
-6.79781e-07
7.47727e-08
-6.95747e-07
7.25865e-08
-7.11235e-07
7.03836e-08
-7.26243e-07
6.81722e-08
-7.40768e-07
6.59597e-08