/*--------------------------------*- C++ -*----------------------------------*\
  =========                 |
  \\      /  F ield         | OpenFOAM: The Open Source CFD Toolbox
   \\    /   O peration     | Website:  https://openfoam.org
    \\  /    A nd           | Version:  7
     \\/     M anipulation  |
\*---------------------------------------------------------------------------*/
FoamFile
{
    version     2.0;
    format      ascii;
    class       volScalarField;
    location    "0.3";
    object      p;
}
// * * * * * * * * * * * * * * * * * * * * * * * * * * * * * * * * * * * * * //

dimensions      [0 2 -2 0 0 0 0];

internalField   nonuniform List<scalar> 
51200
(
-4.36511e-08
-1.21393e-06
-2.71603e-06
-4.0214e-06
-5.00145e-06
-5.83087e-06
-6.59792e-06
-7.3465e-06
-8.10634e-06
-8.89807e-06
-9.73309e-06
-1.06147e-05
-1.1543e-05
-1.25178e-05
-1.35433e-05
-1.4624e-05
-1.57601e-05
-1.69457e-05
-1.81747e-05
-1.94446e-05
-2.07541e-05
-2.21e-05
-2.34772e-05
-2.48817e-05
-2.63106e-05
-2.77615e-05
-2.92322e-05
-3.07188e-05
-3.22167e-05
-3.37248e-05
-3.52411e-05
-3.67624e-05
-3.82854e-05
-3.98069e-05
-4.1325e-05
-4.28392e-05
-4.43471e-05
-4.58462e-05
-4.73355e-05
-4.88134e-05
-5.02798e-05
-5.17353e-05
-5.31792e-05
-5.46097e-05
-5.60265e-05
-5.74284e-05
-5.88132e-05
-6.01802e-05
-6.15303e-05
-6.28645e-05
-6.41835e-05
-6.54849e-05
-6.67672e-05
-6.80313e-05
-6.92798e-05
-7.05147e-05
-7.17362e-05
-7.2943e-05
-7.41335e-05
-7.53059e-05
-7.6461e-05
-7.76019e-05
-7.8732e-05
-7.98527e-05
-8.09627e-05
-8.20599e-05
-8.31436e-05
-8.42147e-05
-8.52756e-05
-8.63309e-05
-8.73832e-05
-8.84328e-05
-8.94778e-05
-9.0517e-05
-9.15512e-05
-9.25832e-05
-9.36148e-05
-9.46456e-05
-9.56754e-05
-9.6706e-05
-9.77398e-05
-9.87786e-05
-9.98219e-05
-0.000100869
-0.000101922
-0.00010298
-0.000104046
-0.00010512
-0.000106203
-0.000107295
-0.000108398
-0.000109512
-0.000110637
-0.000111776
-0.000112925
-0.000114086
-0.000115261
-0.00011645
-0.000117657
-0.000118881
-0.000120119
-0.000121372
-0.000122638
-0.000123922
-0.000125224
-0.000126544
-0.000127882
-0.000129233
-0.000130598
-0.000131977
-0.00013337
-0.000134778
-0.000136204
-0.000137643
-0.000139095
-0.000140558
-0.00014203
-0.000143512
-0.000145004
-0.000146503
-0.000148005
-0.00014951
-0.000151016
-0.000152522
-0.000154028
-0.000155529
-0.000157023
-0.000158508
-0.000159982
-0.000161443
-0.000162886
-0.000164307
-0.000165703
-0.000167073
-0.000168413
-0.000169721
-0.00017099
-0.000172216
-0.000173396
-0.000174527
-0.000175605
-0.000176624
-0.000177582
-0.000178473
-0.000179294
-0.000180043
-0.000180715
-0.000181305
-0.000181809
-0.000182224
-0.000182547
-0.000182779
-0.000182922
-0.000182978
-0.000182948
-0.000182843
-0.000182682
-0.000182491
-0.000182312
-0.000182202
-1.45951e-06
-2.4317e-06
-3.59052e-06
-4.64603e-06
-5.54078e-06
-6.33935e-06
-7.09226e-06
-7.83058e-06
-8.57609e-06
-9.34651e-06
-1.01542e-05
-1.10082e-05
-1.19108e-05
-1.28605e-05
-1.38562e-05
-1.48993e-05
-1.59923e-05
-1.7134e-05
-1.83204e-05
-1.95462e-05
-2.08098e-05
-2.21083e-05
-2.34385e-05
-2.4798e-05
-2.61824e-05
-2.75892e-05
-2.90169e-05
-3.04615e-05
-3.19193e-05
-3.3388e-05
-3.48649e-05
-3.63484e-05
-3.7836e-05
-3.93244e-05
-4.08118e-05
-4.22973e-05
-4.37789e-05
-4.52548e-05
-4.67231e-05
-4.81816e-05
-4.96296e-05
-5.10673e-05
-5.24947e-05
-5.39112e-05
-5.53169e-05
-5.67115e-05
-5.80931e-05
-5.94602e-05
-6.08115e-05
-6.21474e-05
-6.34697e-05
-6.47783e-05
-6.60708e-05
-6.73469e-05
-6.86073e-05
-6.98531e-05
-7.10859e-05
-7.23069e-05
-7.35163e-05
-7.47128e-05
-7.58951e-05
-7.7063e-05
-7.82176e-05
-7.93611e-05
-8.04953e-05
-8.162e-05
-8.27348e-05
-8.38397e-05
-8.49348e-05
-8.60225e-05
-8.71055e-05
-8.81862e-05
-8.92648e-05
-9.03402e-05
-9.14114e-05
-9.24797e-05
-9.35473e-05
-9.46148e-05
-9.56822e-05
-9.67498e-05
-9.78192e-05
-9.88923e-05
-9.99707e-05
-0.000101054
-0.000102143
-0.000103237
-0.000104336
-0.000105443
-0.000106558
-0.000107682
-0.000108815
-0.000109958
-0.000111112
-0.000112278
-0.000113455
-0.000114644
-0.000115844
-0.000117055
-0.00011828
-0.000119521
-0.000120777
-0.000122048
-0.000123331
-0.000124628
-0.00012594
-0.000127267
-0.00012861
-0.000129967
-0.000131337
-0.000132719
-0.000134112
-0.000135517
-0.000136935
-0.000138366
-0.000139808
-0.00014126
-0.000142719
-0.000144185
-0.000145659
-0.000147138
-0.000148618
-0.000150099
-0.000151579
-0.000153057
-0.000154532
-0.000156001
-0.000157462
-0.000158911
-0.000160348
-0.00016177
-0.000163174
-0.000164555
-0.00016591
-0.000167237
-0.000168532
-0.000169795
-0.00017102
-0.000172204
-0.00017334
-0.000174428
-0.000175463
-0.000176441
-0.000177359
-0.000178215
-0.000179003
-0.000179721
-0.000180366
-0.000180934
-0.000181422
-0.000181828
-0.000182151
-0.00018239
-0.000182548
-0.000182629
-0.000182637
-0.000182581
-0.000182477
-0.000182346
-0.000182211
-0.000182103
-3.32976e-06
-3.87578e-06
-4.59999e-06
-5.37308e-06
-6.11931e-06
-6.83612e-06
-7.53965e-06
-8.24535e-06
-8.96564e-06
-9.71131e-06
-1.04925e-05
-1.13169e-05
-1.21898e-05
-1.31123e-05
-1.40817e-05
-1.50959e-05
-1.61555e-05
-1.72614e-05
-1.84115e-05
-1.96021e-05
-2.08297e-05
-2.2091e-05
-2.33839e-05
-2.4706e-05
-2.60538e-05
-2.74249e-05
-2.88168e-05
-3.02271e-05
-3.16524e-05
-3.30888e-05
-3.45342e-05
-3.59874e-05
-3.7446e-05
-3.89076e-05
-4.03697e-05
-4.18308e-05
-4.32899e-05
-4.47455e-05
-4.61957e-05
-4.76387e-05
-4.90729e-05
-5.04978e-05
-5.19137e-05
-5.33206e-05
-5.47176e-05
-5.61053e-05
-5.74835e-05
-5.88503e-05
-6.02034e-05
-6.15417e-05
-6.28664e-05
-6.41788e-05
-6.54785e-05
-6.67649e-05
-6.80373e-05
-6.92955e-05
-7.05407e-05
-7.17742e-05
-7.29975e-05
-7.42113e-05
-7.54147e-05
-7.66062e-05
-7.77843e-05
-7.89499e-05
-8.01051e-05
-8.12512e-05
-8.23898e-05
-8.35222e-05
-8.46475e-05
-8.57653e-05
-8.68771e-05
-8.79851e-05
-8.90911e-05
-9.01955e-05
-9.1297e-05
-9.23957e-05
-9.34935e-05
-9.4592e-05
-9.56918e-05
-9.67927e-05
-9.78941e-05
-9.89972e-05
-0.000100104
-0.000101217
-0.000102336
-0.00010346
-0.000104589
-0.000105725
-0.000106868
-0.000108019
-0.000109179
-0.000110348
-0.000111526
-0.000112715
-0.000113915
-0.000115127
-0.000116349
-0.00011758
-0.000118822
-0.000120078
-0.000121349
-0.000122634
-0.000123933
-0.000125243
-0.000126566
-0.0001279
-0.000129247
-0.000130607
-0.00013198
-0.000133364
-0.00013476
-0.000136164
-0.000137578
-0.000139003
-0.000140437
-0.00014188
-0.000143329
-0.000144783
-0.000146241
-0.000147703
-0.000149167
-0.000150629
-0.000152088
-0.000153543
-0.000154993
-0.000156437
-0.000157871
-0.000159293
-0.000160699
-0.000162088
-0.000163459
-0.000164808
-0.000166132
-0.000167426
-0.000168686
-0.000169912
-0.000171101
-0.000172248
-0.00017335
-0.000174404
-0.000175406
-0.000176352
-0.000177241
-0.000178068
-0.00017883
-0.000179525
-0.000180148
-0.000180698
-0.000181174
-0.000181574
-0.000181895
-0.000182139
-0.000182308
-0.000182404
-0.000182434
-0.000182404
-0.000182327
-0.000182218
-0.000182085
-0.000181938
-5.0098e-06
-5.19964e-06
-5.60115e-06
-6.1347e-06
-6.72093e-06
-7.33078e-06
-7.9611e-06
-8.61534e-06
-9.29771e-06
-1.00144e-05
-1.07697e-05
-1.15673e-05
-1.24108e-05
-1.33036e-05
-1.42451e-05
-1.5233e-05
-1.62656e-05
-1.73417e-05
-1.84608e-05
-1.962e-05
-2.0816e-05
-2.20463e-05
-2.33078e-05
-2.45982e-05
-2.59158e-05
-2.72563e-05
-2.86174e-05
-2.99979e-05
-3.13946e-05
-3.2804e-05
-3.42237e-05
-3.56515e-05
-3.70861e-05
-3.85254e-05
-3.99666e-05
-4.14078e-05
-4.28477e-05
-4.42847e-05
-4.57181e-05
-4.71467e-05
-4.85686e-05
-4.99831e-05
-5.13908e-05
-5.27912e-05
-5.41827e-05
-5.55654e-05
-5.69395e-05
-5.83044e-05
-5.9659e-05
-6.1001e-05
-6.23295e-05
-6.36459e-05
-6.4951e-05
-6.62448e-05
-6.75272e-05
-6.87979e-05
-7.00572e-05
-7.13049e-05
-7.25417e-05
-7.37693e-05
-7.4988e-05
-7.61977e-05
-7.73972e-05
-7.85854e-05
-7.97629e-05
-8.09305e-05
-8.20898e-05
-8.32434e-05
-8.43924e-05
-8.55365e-05
-8.66757e-05
-8.78108e-05
-8.89429e-05
-9.00735e-05
-9.12024e-05
-9.23288e-05
-9.34536e-05
-9.45785e-05
-9.57052e-05
-9.68343e-05
-9.79653e-05
-9.90978e-05
-0.000100233
-0.000101373
-0.000102517
-0.000103667
-0.000104823
-0.000105985
-0.000107154
-0.00010833
-0.000109514
-0.000110708
-0.000111909
-0.000113119
-0.000114339
-0.00011557
-0.000116812
-0.000118063
-0.000119323
-0.000120594
-0.000121877
-0.000123175
-0.000124485
-0.000125807
-0.000127141
-0.000128484
-0.000129838
-0.000131203
-0.000132578
-0.000133963
-0.000135359
-0.000136764
-0.000138177
-0.000139598
-0.000141026
-0.000142461
-0.000143902
-0.000145346
-0.000146793
-0.00014824
-0.000149688
-0.000151135
-0.000152577
-0.000154014
-0.000155443
-0.000156864
-0.000158276
-0.000159674
-0.000161056
-0.00016242
-0.000163763
-0.000165084
-0.000166379
-0.000167645
-0.000168878
-0.000170074
-0.000171233
-0.000172351
-0.000173423
-0.000174449
-0.000175424
-0.000176344
-0.000177209
-0.000178013
-0.000178754
-0.00017943
-0.000180037
-0.000180573
-0.000181037
-0.00018143
-0.000181751
-0.000181997
-0.000182172
-0.000182277
-0.000182318
-0.000182299
-0.000182229
-0.000182119
-0.000181965
-0.000181761
-6.29749e-06
-6.29798e-06
-6.50254e-06
-6.86226e-06
-7.31126e-06
-7.81845e-06
-8.37173e-06
-8.96658e-06
-9.60298e-06
-1.02828e-05
-1.10082e-05
-1.17794e-05
-1.25965e-05
-1.34607e-05
-1.43731e-05
-1.53336e-05
-1.63396e-05
-1.7389e-05
-1.84799e-05
-1.96093e-05
-2.07755e-05
-2.19762e-05
-2.32079e-05
-2.44692e-05
-2.57582e-05
-2.70713e-05
-2.84051e-05
-2.97579e-05
-3.11275e-05
-3.25115e-05
-3.3907e-05
-3.53115e-05
-3.67234e-05
-3.81413e-05
-3.9563e-05
-4.09864e-05
-4.24096e-05
-4.38306e-05
-4.52489e-05
-4.66637e-05
-4.80738e-05
-4.94784e-05
-5.08778e-05
-5.22721e-05
-5.36599e-05
-5.50399e-05
-5.64115e-05
-5.77744e-05
-5.91291e-05
-6.0474e-05
-6.18073e-05
-6.31296e-05
-6.44411e-05
-6.5742e-05
-6.70329e-05
-6.83141e-05
-6.95863e-05
-7.0849e-05
-7.21019e-05
-7.33454e-05
-7.45796e-05
-7.58052e-05
-7.70227e-05
-7.82312e-05
-7.94308e-05
-8.06218e-05
-8.18045e-05
-8.29803e-05
-8.41513e-05
-8.53188e-05
-8.64833e-05
-8.76446e-05
-8.88027e-05
-8.99588e-05
-9.1114e-05
-9.22681e-05
-9.34209e-05
-9.45732e-05
-9.57262e-05
-9.68811e-05
-9.80388e-05
-9.91995e-05
-0.000100363
-0.00010153
-0.000102701
-0.000103877
-0.000105059
-0.000106247
-0.00010744
-0.00010864
-0.000109848
-0.000111065
-0.00011229
-0.000113523
-0.000114763
-0.000116013
-0.000117272
-0.000118541
-0.00011982
-0.000121108
-0.000122407
-0.000123717
-0.000125038
-0.00012637
-0.000127713
-0.000129066
-0.000130429
-0.0001318
-0.000133179
-0.000134566
-0.000135963
-0.000137368
-0.00013878
-0.000140198
-0.000141622
-0.00014305
-0.000144483
-0.000145918
-0.000147355
-0.00014879
-0.000150224
-0.000151655
-0.000153082
-0.000154503
-0.000155915
-0.000157315
-0.000158704
-0.000160081
-0.000161441
-0.000162782
-0.000164102
-0.000165397
-0.000166666
-0.000167905
-0.000169111
-0.000170281
-0.000171413
-0.000172503
-0.00017355
-0.000174551
-0.000175501
-0.000176399
-0.000177241
-0.000178024
-0.000178746
-0.000179405
-0.000179998
-0.000180523
-0.000180978
-0.000181365
-0.000181682
-0.000181929
-0.000182107
-0.000182217
-0.000182262
-0.000182248
-0.000182178
-0.00018206
-0.000181878
-0.000181618
-7.31575e-06
-7.1974e-06
-7.27385e-06
-7.50781e-06
-7.84664e-06
-8.26495e-06
-8.7469e-06
-9.28538e-06
-9.87531e-06
-1.05152e-05
-1.12063e-05
-1.19485e-05
-1.27399e-05
-1.35787e-05
-1.44647e-05
-1.53977e-05
-1.63771e-05
-1.74007e-05
-1.84654e-05
-1.95683e-05
-2.07072e-05
-2.18802e-05
-2.30851e-05
-2.43191e-05
-2.55807e-05
-2.68682e-05
-2.81776e-05
-2.95058e-05
-3.08512e-05
-3.22118e-05
-3.3585e-05
-3.49684e-05
-3.63598e-05
-3.77576e-05
-3.91608e-05
-4.05672e-05
-4.19749e-05
-4.33821e-05
-4.47875e-05
-4.61903e-05
-4.75902e-05
-4.89863e-05
-5.03779e-05
-5.17659e-05
-5.31498e-05
-5.45279e-05
-5.58991e-05
-5.72621e-05
-5.8617e-05
-5.99637e-05
-6.13013e-05
-6.26297e-05
-6.39486e-05
-6.5258e-05
-6.65584e-05
-6.78496e-05
-6.91325e-05
-7.04082e-05
-7.16763e-05
-7.29364e-05
-7.4188e-05
-7.54311e-05
-7.66662e-05
-7.78928e-05
-7.91117e-05
-8.0324e-05
-8.15298e-05
-8.27292e-05
-8.39236e-05
-8.51142e-05
-8.63024e-05
-8.74885e-05
-8.8672e-05
-8.98532e-05
-9.1033e-05
-9.22125e-05
-9.33923e-05
-9.45723e-05
-9.57525e-05
-9.69334e-05
-9.81168e-05
-9.93037e-05
-0.000100494
-0.000101688
-0.000102885
-0.000104087
-0.000105294
-0.000106507
-0.000107725
-0.00010895
-0.00011018
-0.000111418
-0.000112665
-0.000113921
-0.000115183
-0.000116452
-0.000117729
-0.000119014
-0.00012031
-0.000121616
-0.000122931
-0.000124255
-0.000125589
-0.000126932
-0.000128284
-0.000129645
-0.000131014
-0.000132392
-0.000133777
-0.000135168
-0.000136567
-0.000137972
-0.000139384
-0.000140801
-0.000142221
-0.000143644
-0.00014507
-0.000146497
-0.000147925
-0.00014935
-0.000150772
-0.00015219
-0.000153602
-0.000155008
-0.000156404
-0.000157788
-0.000159158
-0.000160513
-0.000161852
-0.000163173
-0.000164471
-0.000165745
-0.00016699
-0.000168204
-0.000169386
-0.000170531
-0.000171639
-0.000172706
-0.00017373
-0.000174708
-0.000175637
-0.000176514
-0.000177337
-0.000178102
-0.000178807
-0.000179451
-0.000180031
-0.000180546
-0.000180995
-0.000181376
-0.000181689
-0.000181935
-0.000182114
-0.000182226
-0.000182272
-0.000182256
-0.000182183
-0.000182054
-0.000181845
-0.000181535
-8.11921e-06
-7.92009e-06
-7.90899e-06
-8.05232e-06
-8.30477e-06
-8.64725e-06
-9.06632e-06
-9.55309e-06
-1.01006e-05
-1.07037e-05
-1.13611e-05
-1.20726e-05
-1.28368e-05
-1.36516e-05
-1.45139e-05
-1.54226e-05
-1.6377e-05
-1.73752e-05
-1.84154e-05
-1.94942e-05
-2.06083e-05
-2.17569e-05
-2.29379e-05
-2.41476e-05
-2.53847e-05
-2.66478e-05
-2.79341e-05
-2.92402e-05
-3.0564e-05
-3.19034e-05
-3.32565e-05
-3.46209e-05
-3.59942e-05
-3.7375e-05
-3.87615e-05
-4.01521e-05
-4.15455e-05
-4.294e-05
-4.43339e-05
-4.57264e-05
-4.71178e-05
-4.85071e-05
-4.98932e-05
-5.12761e-05
-5.26559e-05
-5.40317e-05
-5.54028e-05
-5.67672e-05
-5.81239e-05
-5.94733e-05
-6.08148e-05
-6.21483e-05
-6.34739e-05
-6.4792e-05
-6.61026e-05
-6.74051e-05
-6.86996e-05
-6.99874e-05
-7.12687e-05
-7.25436e-05
-7.3812e-05
-7.5073e-05
-7.63265e-05
-7.75721e-05
-7.88099e-05
-8.00416e-05
-8.12681e-05
-8.24898e-05
-8.37074e-05
-8.49215e-05
-8.61329e-05
-8.73426e-05
-8.85508e-05
-8.97569e-05
-9.09612e-05
-9.21651e-05
-9.33694e-05
-9.45748e-05
-9.57812e-05
-9.69884e-05
-9.81977e-05
-9.94099e-05
-0.000100626
-0.000101845
-0.000103068
-0.000104295
-0.000105526
-0.000106763
-0.000108006
-0.000109254
-0.000110508
-0.000111767
-0.000113035
-0.00011431
-0.000115593
-0.000116883
-0.000118179
-0.000119482
-0.000120794
-0.000122115
-0.000123445
-0.000124784
-0.000126131
-0.000127486
-0.000128848
-0.000130218
-0.000131594
-0.000132978
-0.000134369
-0.000135765
-0.000137167
-0.000138574
-0.000139985
-0.000141401
-0.00014282
-0.00014424
-0.00014566
-0.00014708
-0.0001485
-0.000149917
-0.000151329
-0.000152736
-0.000154135
-0.000155526
-0.000156908
-0.000158277
-0.000159632
-0.00016097
-0.00016229
-0.000163591
-0.00016487
-0.000166123
-0.000167347
-0.000168541
-0.000169701
-0.000170825
-0.000171912
-0.000172958
-0.000173961
-0.00017492
-0.00017583
-0.000176688
-0.000177494
-0.000178245
-0.000178936
-0.000179567
-0.000180137
-0.000180643
-0.000181085
-0.000181462
-0.000181771
-0.000182015
-0.000182194
-0.000182306
-0.000182351
-0.000182331
-0.000182251
-0.00018211
-0.000181878
-0.000181529
-8.73303e-06
-8.47862e-06
-8.40719e-06
-8.48623e-06
-8.67341e-06
-8.95578e-06
-9.32094e-06
-9.76066e-06
-1.0269e-05
-1.08394e-05
-1.14672e-05
-1.21503e-05
-1.28877e-05
-1.36777e-05
-1.45178e-05
-1.54053e-05
-1.63374e-05
-1.73126e-05
-1.83296e-05
-1.93856e-05
-2.04774e-05
-2.16036e-05
-2.27628e-05
-2.39518e-05
-2.51678e-05
-2.64091e-05
-2.76742e-05
-2.89602e-05
-3.02643e-05
-3.15848e-05
-3.29195e-05
-3.42664e-05
-3.56238e-05
-3.69897e-05
-3.83618e-05
-3.9739e-05
-4.11198e-05
-4.25028e-05
-4.38866e-05
-4.52703e-05
-4.66539e-05
-4.80374e-05
-4.94195e-05
-5.07993e-05
-5.21765e-05
-5.35506e-05
-5.49213e-05
-5.62869e-05
-5.76463e-05
-5.89994e-05
-6.03458e-05
-6.16849e-05
-6.30172e-05
-6.43429e-05
-6.56626e-05
-6.69761e-05
-6.82833e-05
-6.95844e-05
-7.08791e-05
-7.21682e-05
-7.3452e-05
-7.47293e-05
-7.60001e-05
-7.72647e-05
-7.85224e-05
-7.97739e-05
-8.10203e-05
-8.22629e-05
-8.35026e-05
-8.47396e-05
-8.59739e-05
-8.72063e-05
-8.84377e-05
-8.96678e-05
-9.08966e-05
-9.2125e-05
-9.33534e-05
-9.45825e-05
-9.58132e-05
-9.70456e-05
-9.82803e-05
-9.95176e-05
-0.000100758
-0.000102002
-0.00010325
-0.000104502
-0.000105757
-0.000107017
-0.000108282
-0.000109552
-0.000110829
-0.000112111
-0.000113399
-0.000114694
-0.000115996
-0.000117304
-0.00011862
-0.000119942
-0.000121271
-0.000122608
-0.000123952
-0.000125304
-0.000126664
-0.000128031
-0.000129404
-0.000130784
-0.000132168
-0.000133558
-0.000134955
-0.000136356
-0.000137763
-0.000139172
-0.000140585
-0.000142001
-0.000143418
-0.000144837
-0.000146253
-0.000147669
-0.000149081
-0.00015049
-0.000151894
-0.000153292
-0.000154681
-0.00015606
-0.000157429
-0.000158784
-0.000160125
-0.000161449
-0.000162754
-0.000164038
-0.000165298
-0.000166533
-0.000167738
-0.000168914
-0.000170055
-0.000171161
-0.00017223
-0.000173258
-0.000174243
-0.000175184
-0.000176077
-0.00017692
-0.000177712
-0.000178449
-0.00017913
-0.000179752
-0.000180313
-0.000180812
-0.000181248
-0.00018162
-0.000181926
-0.000182168
-0.000182345
-0.000182456
-0.0001825
-0.000182477
-0.000182389
-0.000182237
-0.000181986
-0.000181607
-9.17752e-06
-8.88482e-06
-8.77179e-06
-8.80499e-06
-8.94463e-06
-9.18136e-06
-9.50403e-06
-9.90391e-06
-1.03765e-05
-1.09166e-05
-1.15182e-05
-1.21772e-05
-1.28906e-05
-1.36572e-05
-1.44755e-05
-1.53425e-05
-1.6255e-05
-1.72104e-05
-1.82067e-05
-1.92423e-05
-2.03143e-05
-2.14198e-05
-2.25585e-05
-2.37286e-05
-2.49261e-05
-2.61489e-05
-2.73954e-05
-2.86633e-05
-2.99502e-05
-3.12539e-05
-3.25722e-05
-3.39037e-05
-3.52466e-05
-3.65989e-05
-3.79587e-05
-3.93244e-05
-4.06945e-05
-4.20677e-05
-4.34433e-05
-4.48199e-05
-4.61971e-05
-4.75754e-05
-4.8954e-05
-5.03317e-05
-5.17081e-05
-5.3082e-05
-5.44528e-05
-5.58198e-05
-5.71819e-05
-5.85388e-05
-5.98903e-05
-6.12361e-05
-6.25761e-05
-6.391e-05
-6.52384e-05
-6.6562e-05
-6.78808e-05
-6.9195e-05
-7.05041e-05
-7.18081e-05
-7.31072e-05
-7.44003e-05
-7.56875e-05
-7.69695e-05
-7.82462e-05
-7.95175e-05
-8.07845e-05
-8.20478e-05
-8.33086e-05
-8.45676e-05
-8.58247e-05
-8.70798e-05
-8.83333e-05
-8.9586e-05
-9.08382e-05
-9.20904e-05
-9.33427e-05
-9.45952e-05
-9.58492e-05
-9.71056e-05
-9.83649e-05
-9.96268e-05
-0.000100891
-0.000102159
-0.000103431
-0.000104707
-0.000105986
-0.000107269
-0.000108555
-0.000109846
-0.000111144
-0.000112448
-0.000113758
-0.000115072
-0.000116392
-0.000117719
-0.000119053
-0.000120393
-0.000121739
-0.000123092
-0.000124452
-0.000125818
-0.000127191
-0.000128569
-0.000129953
-0.000131342
-0.000132736
-0.000134134
-0.000135536
-0.000136944
-0.000138355
-0.000139768
-0.000141183
-0.0001426
-0.000144017
-0.000145435
-0.00014685
-0.000148261
-0.000149669
-0.000151071
-0.000152467
-0.000153857
-0.000155238
-0.000156608
-0.000157966
-0.00015931
-0.000160639
-0.00016195
-0.000163241
-0.00016451
-0.000165755
-0.000166973
-0.000168163
-0.000169321
-0.000170447
-0.000171538
-0.00017259
-0.000173602
-0.000174572
-0.000175498
-0.000176377
-0.000177208
-0.000177987
-0.000178714
-0.000179386
-0.00018
-0.000180555
-0.000181047
-0.000181478
-0.000181847
-0.000182152
-0.000182392
-0.000182567
-0.000182676
-0.000182719
-0.000182694
-0.0001826
-0.00018244
-0.000182175
-0.000181776
-9.46819e-06
-9.15051e-06
-9.00945e-06
-9.01149e-06
-9.11593e-06
-9.31776e-06
-9.60842e-06
-9.9777e-06
-1.04203e-05
-1.09327e-05
-1.15103e-05
-1.2148e-05
-1.28415e-05
-1.35882e-05
-1.43864e-05
-1.5234e-05
-1.61283e-05
-1.70656e-05
-1.80438e-05
-1.90617e-05
-2.01163e-05
-2.12046e-05
-2.23254e-05
-2.34775e-05
-2.46583e-05
-2.58647e-05
-2.70948e-05
-2.83471e-05
-2.96188e-05
-3.09077e-05
-3.22122e-05
-3.35306e-05
-3.48607e-05
-3.62012e-05
-3.75503e-05
-3.8906e-05
-4.0267e-05
-4.16321e-05
-4.30008e-05
-4.43721e-05
-4.57449e-05
-4.71194e-05
-4.84951e-05
-4.98714e-05
-5.12477e-05
-5.26225e-05
-5.39947e-05
-5.5364e-05
-5.67295e-05
-5.80904e-05
-5.94468e-05
-6.07989e-05
-6.21469e-05
-6.34899e-05
-6.4828e-05
-6.61622e-05
-6.74922e-05
-6.88186e-05
-7.01415e-05
-7.14602e-05
-7.27747e-05
-7.40841e-05
-7.53879e-05
-7.66868e-05
-7.79812e-05
-7.92717e-05
-8.05589e-05
-8.1843e-05
-8.31246e-05
-8.44048e-05
-8.5684e-05
-8.69613e-05
-8.8237e-05
-8.95119e-05
-9.07865e-05
-9.20612e-05
-9.33364e-05
-9.46121e-05
-9.58892e-05
-9.71688e-05
-9.84514e-05
-9.97371e-05
-0.000101026
-0.000102317
-0.000103611
-0.00010491
-0.000106212
-0.000107517
-0.000108825
-0.000110138
-0.000111456
-0.00011278
-0.00011411
-0.000115444
-0.000116783
-0.000118128
-0.00011948
-0.000120837
-0.0001222
-0.000123569
-0.000124944
-0.000126325
-0.000127711
-0.000129101
-0.000130495
-0.000131894
-0.000133297
-0.000134704
-0.000136114
-0.000137527
-0.000138943
-0.000140361
-0.00014178
-0.000143199
-0.000144618
-0.000146035
-0.000147448
-0.000148858
-0.000150262
-0.000151659
-0.000153049
-0.000154432
-0.000155806
-0.000157169
-0.000158519
-0.000159854
-0.000161171
-0.000162471
-0.000163749
-0.000165006
-0.000166237
-0.000167441
-0.000168618
-0.000169763
-0.000170875
-0.000171952
-0.000172991
-0.00017399
-0.000174946
-0.000175859
-0.000176727
-0.000177547
-0.000178318
-0.000179037
-0.000179701
-0.000180309
-0.000180858
-0.000181346
-0.000181774
-0.00018214
-0.000182444
-0.000182684
-0.000182859
-0.000182967
-0.000183009
-0.000182982
-0.000182886
-0.00018272
-0.000182447
-0.000182037
-9.61524e-06
-9.28373e-06
-9.12659e-06
-9.10932e-06
-9.18937e-06
-9.36442e-06
-9.63019e-06
-9.97682e-06
-1.03968e-05
-1.08864e-05
-1.14421e-05
-1.20604e-05
-1.27367e-05
-1.34668e-05
-1.42481e-05
-1.50791e-05
-1.59567e-05
-1.68778e-05
-1.78399e-05
-1.88415e-05
-1.98809e-05
-2.09549e-05
-2.20607e-05
-2.31974e-05
-2.43632e-05
-2.55552e-05
-2.67711e-05
-2.80095e-05
-2.92679e-05
-3.05443e-05
-3.18371e-05
-3.31442e-05
-3.44637e-05
-3.57944e-05
-3.71344e-05
-3.84818e-05
-3.98354e-05
-4.1194e-05
-4.25569e-05
-4.39241e-05
-4.52942e-05
-4.66666e-05
-4.80409e-05
-4.94167e-05
-5.07933e-05
-5.21693e-05
-5.35439e-05
-5.49166e-05
-5.62862e-05
-5.76523e-05
-5.90146e-05
-6.03731e-05
-6.17284e-05
-6.30802e-05
-6.44287e-05
-6.57741e-05
-6.71159e-05
-6.84549e-05
-6.97911e-05
-7.11239e-05
-7.2453e-05
-7.37783e-05
-7.5099e-05
-7.64151e-05
-7.77272e-05
-7.9036e-05
-8.03427e-05
-8.16474e-05
-8.295e-05
-8.42511e-05
-8.5551e-05
-8.68498e-05
-8.81474e-05
-8.94445e-05
-9.07411e-05
-9.20375e-05
-9.33346e-05
-9.46329e-05
-9.59329e-05
-9.72351e-05
-9.85403e-05
-9.98486e-05
-0.00010116
-0.000102475
-0.000103792
-0.000105111
-0.000106435
-0.000107762
-0.000109092
-0.000110426
-0.000111764
-0.000113108
-0.000114457
-0.000115811
-0.000117169
-0.000118533
-0.000119902
-0.000121276
-0.000122656
-0.00012404
-0.00012543
-0.000126825
-0.000128224
-0.000129626
-0.000131032
-0.000132441
-0.000133854
-0.000135269
-0.000136687
-0.000138107
-0.000139529
-0.000140952
-0.000142376
-0.000143798
-0.000145219
-0.000146636
-0.000148049
-0.000149457
-0.000150859
-0.000152253
-0.00015364
-0.000155018
-0.000156386
-0.000157742
-0.000159085
-0.000160412
-0.000161721
-0.000163011
-0.000164279
-0.000165524
-0.000166744
-0.000167937
-0.000169102
-0.000170236
-0.000171336
-0.000172401
-0.000173429
-0.000174417
-0.000175363
-0.000176266
-0.000177125
-0.000177937
-0.000178701
-0.000179413
-0.000180071
-0.000180674
-0.000181219
-0.000181705
-0.000182131
-0.000182497
-0.000182801
-0.000183042
-0.000183218
-0.000183327
-0.000183368
-0.000183341
-0.000183245
-0.000183078
-0.000182803
-0.000182389
-9.62658e-06
-9.29341e-06
-9.12788e-06
-9.10051e-06
-9.16672e-06
-9.32324e-06
-9.56927e-06
-9.89816e-06
-1.03019e-05
-1.07746e-05
-1.13128e-05
-1.19142e-05
-1.2575e-05
-1.32908e-05
-1.40582e-05
-1.48749e-05
-1.57386e-05
-1.66464e-05
-1.75946e-05
-1.85818e-05
-1.96073e-05
-2.06683e-05
-2.17618e-05
-2.28859e-05
-2.4039e-05
-2.52187e-05
-2.64226e-05
-2.7649e-05
-2.88961e-05
-3.0162e-05
-3.14448e-05
-3.27425e-05
-3.40535e-05
-3.53761e-05
-3.67086e-05
-3.80494e-05
-3.93973e-05
-4.07511e-05
-4.211e-05
-4.34739e-05
-4.48422e-05
-4.62138e-05
-4.75886e-05
-4.89654e-05
-5.03432e-05
-5.17214e-05
-5.30989e-05
-5.44751e-05
-5.58495e-05
-5.72214e-05
-5.85906e-05
-5.99566e-05
-6.13198e-05
-6.26806e-05
-6.40391e-05
-6.53955e-05
-6.67497e-05
-6.81017e-05
-6.94516e-05
-7.07984e-05
-7.21419e-05
-7.34824e-05
-7.48194e-05
-7.61527e-05
-7.74828e-05
-7.881e-05
-8.01355e-05
-8.146e-05
-8.27834e-05
-8.41052e-05
-8.54256e-05
-8.67452e-05
-8.8064e-05
-8.93826e-05
-9.07009e-05
-9.20188e-05
-9.33373e-05
-9.46575e-05
-9.59798e-05
-9.73043e-05
-9.86317e-05
-9.99618e-05
-0.000101295
-0.000102632
-0.000103971
-0.000105313
-0.000106657
-0.000108004
-0.000109355
-0.000110711
-0.00011207
-0.000113433
-0.000114801
-0.000116173
-0.00011755
-0.000118932
-0.000120318
-0.00012171
-0.000123106
-0.000124506
-0.000125911
-0.000127319
-0.000128732
-0.000130146
-0.000131564
-0.000132983
-0.000134406
-0.000135831
-0.000137257
-0.000138685
-0.000140113
-0.000141541
-0.00014297
-0.000144396
-0.00014582
-0.000147239
-0.000148652
-0.000150059
-0.00015146
-0.000152853
-0.000154237
-0.000155612
-0.000156976
-0.000158327
-0.000159665
-0.000160985
-0.000162287
-0.000163568
-0.000164828
-0.000166064
-0.000167275
-0.000168459
-0.000169614
-0.000170738
-0.000171829
-0.000172885
-0.000173903
-0.000174882
-0.00017582
-0.000176716
-0.000177568
-0.000178374
-0.000179132
-0.000179839
-0.000180493
-0.000181092
-0.000181636
-0.000182121
-0.000182548
-0.000182915
-0.00018322
-0.000183463
-0.000183641
-0.000183753
-0.000183797
-0.000183772
-0.000183679
-0.000183515
-0.000183242
-0.000182832
-9.51086e-06
-9.18675e-06
-9.01949e-06
-8.98732e-06
-9.04828e-06
-9.19525e-06
-9.42755e-06
-9.74235e-06
-1.01336e-05
-1.05946e-05
-1.11205e-05
-1.17085e-05
-1.23562e-05
-1.30601e-05
-1.38156e-05
-1.46202e-05
-1.5472e-05
-1.63685e-05
-1.7306e-05
-1.82821e-05
-1.92956e-05
-2.03452e-05
-2.1428e-05
-2.25414e-05
-2.36839e-05
-2.48536e-05
-2.60475e-05
-2.7264e-05
-2.85019e-05
-2.97591e-05
-3.10337e-05
-3.2324e-05
-3.36282e-05
-3.49444e-05
-3.62711e-05
-3.76069e-05
-3.89505e-05
-4.03013e-05
-4.16581e-05
-4.30203e-05
-4.43876e-05
-4.57595e-05
-4.71355e-05
-4.85144e-05
-4.9895e-05
-5.12766e-05
-5.26583e-05
-5.4039e-05
-5.54184e-05
-5.67964e-05
-5.81728e-05
-5.9547e-05
-6.09192e-05
-6.22897e-05
-6.36584e-05
-6.50259e-05
-6.63924e-05
-6.77575e-05
-6.91209e-05
-7.04821e-05
-7.18404e-05
-7.31959e-05
-7.45486e-05
-7.58988e-05
-7.72468e-05
-7.85926e-05
-7.99368e-05
-8.12804e-05
-8.26236e-05
-8.39657e-05
-8.53066e-05
-8.66467e-05
-8.79864e-05
-8.93258e-05
-9.06651e-05
-9.20044e-05
-9.33443e-05
-9.46859e-05
-9.60296e-05
-9.73758e-05
-9.87248e-05
-0.000100076
-0.000101431
-0.000102788
-0.000104149
-0.000105512
-0.000106877
-0.000108245
-0.000109617
-0.000110993
-0.000112372
-0.000113755
-0.000115142
-0.000116533
-0.000117928
-0.000119327
-0.000120731
-0.000122138
-0.000123551
-0.000124967
-0.000126386
-0.000127809
-0.000129234
-0.000130661
-0.00013209
-0.000133521
-0.000134954
-0.000136388
-0.000137824
-0.000139259
-0.000140695
-0.000142129
-0.000143563
-0.000144993
-0.00014642
-0.000147842
-0.000149258
-0.000150665
-0.000152066
-0.000153458
-0.000154842
-0.000156215
-0.000157576
-0.000158924
-0.000160256
-0.000161571
-0.000162867
-0.000164142
-0.000165396
-0.000166625
-0.000167829
-0.000169005
-0.000170152
-0.000171269
-0.000172352
-0.0001734
-0.000174412
-0.000175384
-0.000176316
-0.000177207
-0.000178054
-0.000178855
-0.000179608
-0.000180312
-0.000180963
-0.000181561
-0.000182105
-0.000182592
-0.000183021
-0.00018339
-0.000183699
-0.000183945
-0.000184127
-0.000184243
-0.000184292
-0.000184273
-0.000184185
-0.000184027
-0.000183762
-0.000183361
-9.27514e-06
-8.96987e-06
-8.80837e-06
-8.775e-06
-8.83488e-06
-8.97974e-06
-9.20601e-06
-9.51124e-06
-9.89268e-06
-1.03453e-05
-1.0863e-05
-1.14417e-05
-1.20796e-05
-1.27739e-05
-1.35203e-05
-1.43156e-05
-1.51572e-05
-1.60437e-05
-1.69725e-05
-1.79401e-05
-1.89446e-05
-1.9985e-05
-2.10589e-05
-2.21635e-05
-2.32973e-05
-2.44585e-05
-2.56444e-05
-2.68534e-05
-2.8084e-05
-2.93343e-05
-3.06027e-05
-3.18874e-05
-3.31863e-05
-3.44978e-05
-3.58204e-05
-3.71527e-05
-3.84936e-05
-3.98426e-05
-4.11987e-05
-4.25611e-05
-4.39295e-05
-4.5303e-05
-4.66809e-05
-4.80625e-05
-4.94468e-05
-5.08328e-05
-5.22195e-05
-5.3606e-05
-5.49918e-05
-5.63765e-05
-5.77603e-05
-5.9143e-05
-6.05248e-05
-6.19056e-05
-6.32854e-05
-6.46646e-05
-6.60434e-05
-6.74213e-05
-6.87982e-05
-7.01738e-05
-7.15471e-05
-7.29178e-05
-7.42862e-05
-7.56527e-05
-7.7018e-05
-7.83824e-05
-7.97457e-05
-8.11082e-05
-8.24705e-05
-8.38321e-05
-8.51931e-05
-8.65537e-05
-8.79138e-05
-8.92735e-05
-9.06332e-05
-9.19935e-05
-9.33546e-05
-9.47173e-05
-9.60821e-05
-9.74491e-05
-9.8819e-05
-0.000100192
-0.000101567
-0.000102945
-0.000104326
-0.000105709
-0.000107095
-0.000108484
-0.000109876
-0.000111272
-0.000112671
-0.000114074
-0.000115479
-0.000116889
-0.000118301
-0.000119718
-0.000121139
-0.000122563
-0.000123991
-0.000125422
-0.000126856
-0.000128293
-0.000129731
-0.000131171
-0.000132612
-0.000134055
-0.000135498
-0.000136942
-0.000138387
-0.000139831
-0.000141274
-0.000142715
-0.000144154
-0.00014559
-0.000147021
-0.000148446
-0.000149864
-0.000151274
-0.000152676
-0.000154069
-0.000155453
-0.000156825
-0.000158185
-0.00015953
-0.000160859
-0.00016217
-0.000163462
-0.000164733
-0.000165982
-0.000167206
-0.000168405
-0.000169575
-0.000170717
-0.000171827
-0.000172904
-0.000173947
-0.000174954
-0.000175922
-0.00017685
-0.000177737
-0.00017858
-0.000179378
-0.000180129
-0.00018083
-0.000181481
-0.000182079
-0.000182624
-0.000183114
-0.000183548
-0.000183922
-0.000184235
-0.000184486
-0.000184673
-0.000184797
-0.000184853
-0.000184842
-0.000184763
-0.000184614
-0.00018436
-0.000183974
-8.92714e-06
-8.64682e-06
-8.49938e-06
-8.46962e-06
-8.53065e-06
-8.67755e-06
-8.9039e-06
-9.20585e-06
-9.58144e-06
-1.00278e-05
-1.05402e-05
-1.11134e-05
-1.17443e-05
-1.24314e-05
-1.31714e-05
-1.396e-05
-1.47944e-05
-1.56731e-05
-1.65943e-05
-1.75552e-05
-1.85532e-05
-1.95867e-05
-2.06538e-05
-2.17521e-05
-2.28788e-05
-2.4033e-05
-2.52129e-05
-2.64163e-05
-2.76414e-05
-2.88867e-05
-3.01506e-05
-3.14314e-05
-3.27269e-05