/*--------------------------------*- C++ -*----------------------------------*\
  =========                 |
  \\      /  F ield         | OpenFOAM: The Open Source CFD Toolbox
   \\    /   O peration     | Website:  https://openfoam.org
    \\  /    A nd           | Version:  7
     \\/     M anipulation  |
\*---------------------------------------------------------------------------*/
FoamFile
{
    version     2.0;
    format      ascii;
    class       surfaceScalarField;
    location    "0.3";
    object      phi;
}
// * * * * * * * * * * * * * * * * * * * * * * * * * * * * * * * * * * * * * //

dimensions      [0 3 -1 0 0 0 0];

internalField   nonuniform List<scalar> 
101920
(
-4.19371e-14
9.41147e-14
2.19225e-13
-2.58315e-13
5.07969e-13
-2.89919e-13
9.49677e-13
-4.41613e-13
1.50253e-12
-5.55157e-13
2.14084e-12
-6.39536e-13
2.84032e-12
-7.00263e-13
3.57855e-12
-7.38452e-13
4.33426e-12
-7.55198e-13
5.08944e-12
-7.54111e-13
5.82815e-12
-7.39015e-13
6.53718e-12
-7.1073e-13
7.20529e-12
-6.71071e-13
7.82571e-12
-6.21047e-13
8.39111e-12
-5.63652e-13
8.89409e-12
-5.00605e-13
9.32745e-12
-4.32961e-13
9.68756e-12
-3.61032e-13
9.97275e-12
-2.85288e-13
1.01811e-11
-2.07514e-13
1.03109e-11
-1.28536e-13
1.03609e-11
-4.96739e-14
1.03307e-11
2.92272e-14
1.02213e-11
1.08695e-13
1.00334e-11
1.87286e-13
9.76845e-12
2.64953e-13
9.42772e-12
3.41205e-13
9.01263e-12
4.14503e-13
8.52574e-12
4.85833e-13
7.96865e-12
5.56064e-13
7.34392e-12
6.23863e-13
6.65485e-12
6.88709e-13
5.90449e-12
7.50102e-13
5.09633e-12
8.07659e-13
4.23416e-12
8.62016e-13
3.32102e-12
9.12997e-13
2.36092e-12
9.60193e-13
1.35784e-12
1.00382e-12
3.15174e-13
1.04341e-12
-7.63144e-13
1.07863e-12
-1.8729e-12
1.11031e-12
-3.01038e-12
1.13802e-12
-4.17169e-12
1.16123e-12
-5.35232e-12
1.18062e-12
-6.5488e-12
1.19642e-12
-7.75788e-12
1.20847e-12
-8.97479e-12
1.21665e-12
-1.01954e-11
1.22063e-12
-1.14166e-11
1.2206e-12
-1.26349e-11
1.21729e-12
-1.38474e-11
1.21097e-12
-1.505e-11
1.20149e-12
-1.62386e-11
1.18829e-12
-1.74098e-11
1.17167e-12
-1.85604e-11
1.15164e-12
-1.96878e-11
1.12808e-12
-2.07891e-11
1.1015e-12
-2.18611e-11
1.07205e-12
-2.29015e-11
1.03972e-12
-2.39068e-11
1.00475e-12
-2.48738e-11
9.67225e-13
-2.58006e-11
9.27255e-13
-2.66852e-11
8.84857e-13
-2.7526e-11
8.40267e-13
-2.83209e-11
7.94084e-13
-2.90671e-11
7.46277e-13
-2.97627e-11
6.96362e-13
-3.04054e-11
6.44071e-13
-3.09932e-11
5.89394e-13
-3.15261e-11
5.33125e-13
-3.20033e-11
4.76391e-13
-3.24238e-11
4.19276e-13
-3.27863e-11
3.6134e-13
-3.30897e-11
3.0256e-13
-3.33327e-11
2.43216e-13
-3.35151e-11
1.83513e-13
-3.3637e-11
1.23156e-13
-3.36977e-11
6.17324e-14
-3.36968e-11
-3.9473e-16
-3.36342e-11
-6.25294e-14
-3.35104e-11
-1.24364e-13
-3.33265e-11
-1.85551e-13
-3.30824e-11
-2.45642e-13
-3.2778e-11
-3.04602e-13
-3.24141e-11
-3.62908e-13
-3.19921e-11
-4.20845e-13
-3.15132e-11
-4.78218e-13
-3.09787e-11
-5.34472e-13
-3.03902e-11
-5.89126e-13
-2.97483e-11
-6.42355e-13
-2.90546e-11
-6.94045e-13
-2.83111e-11
-7.43594e-13
-2.75195e-11
-7.91136e-13
-2.66821e-11
-8.37098e-13
-2.58004e-11
-8.81547e-13
-2.48762e-11
-9.24313e-13
-2.39121e-11
-9.64565e-13
-2.29105e-11
-1.00159e-12
-2.18742e-11
-1.03557e-12
-2.08056e-11
-1.06731e-12
-1.97071e-11
-1.09749e-12
-1.85821e-11
-1.12555e-12
-1.74327e-11
-1.15043e-12
-1.62625e-11
-1.17145e-12
-1.50752e-11
-1.18848e-12
-1.38736e-11
-1.20217e-12
-1.26615e-11
-1.21282e-12
-1.14415e-11
-1.22013e-12
-1.02164e-11
-1.22431e-12
-8.99023e-12
-1.22541e-12
-7.76646e-12
-1.2232e-12
-6.54859e-12
-1.21771e-12
-5.3413e-12
-1.20832e-12
-4.14772e-12
-1.19462e-12
-2.97078e-12
-1.17734e-12
-1.81452e-12
-1.15668e-12
-6.81824e-13
-1.13245e-12
4.23098e-13
-1.10461e-12
1.49513e-12
-1.07245e-12
2.53175e-12
-1.03619e-12
3.52984e-12
-9.97073e-13
4.48498e-12
-9.54941e-13
5.39399e-12
-9.0895e-13
6.25325e-12
-8.5911e-13
7.05903e-12
-8.05627e-13
7.80903e-12
-7.49142e-13
8.50019e-12
-6.90452e-13
9.12851e-12
-6.28923e-13
9.69119e-12
-5.63576e-13
1.01858e-11
-4.94955e-13
1.06102e-11
-4.24162e-13
1.09631e-11
-3.51957e-13
1.12425e-11
-2.78618e-13
1.14455e-11
-2.0357e-13
1.15714e-11
-1.26691e-13
1.16192e-11
-4.88452e-14
1.1588e-11
2.96724e-14
1.14785e-11
1.08781e-13
1.12914e-11
1.87637e-13
1.10268e-11
2.65246e-13
1.06865e-11
3.40875e-13
1.02729e-11
4.13701e-13
9.78828e-12
4.8347e-13
9.23638e-12
5.50263e-13
8.62278e-12
6.13027e-13
7.9526e-12
6.70039e-13
7.23225e-12
7.20214e-13
6.47079e-12
7.62157e-13
5.67834e-12
7.93304e-13
4.86622e-12
8.11775e-13
4.0489e-12
8.16756e-13
3.24312e-12
8.06048e-13
2.46711e-12
7.7608e-13
1.74368e-12
7.23291e-13
1.1004e-12
6.43755e-13
5.6656e-13
5.33927e-13
1.73713e-13
3.92313e-13
-4.69897e-14
2.20895e-13
-8.2617e-14
3.65686e-14
-8.20869e-14
-1.2453e-13
2.21983e-13
2.69045e-13
-6.54765e-13
1.15828e-12
-1.17801e-12
2.37823e-12
-1.65936e-12
3.88116e-12
-2.05669e-12
5.59615e-12
-2.35397e-12
7.45677e-12
-2.56089e-12
9.40375e-12
-2.68702e-12
1.13856e-11
-2.73969e-12
1.33578e-11
-2.72795e-12
1.52831e-11
-2.66155e-12
1.71255e-11
-2.55032e-12
1.88549e-11
-2.39995e-12
2.04456e-11
-2.21517e-12
2.18784e-11
-2.00008e-12
2.31369e-11
-1.76015e-12
2.42057e-11
-1.50128e-12
2.50725e-11
-1.22748e-12
2.57275e-11
-9.42399e-13
2.6166e-11
-6.47654e-13
2.63834e-11
-3.46567e-13
2.63769e-11
-4.29187e-14
2.61463e-11
2.61694e-13
2.56905e-11
5.64889e-13
2.50123e-11
8.65059e-13
2.41158e-11
1.16184e-12
2.30041e-11
1.45313e-12
2.16829e-11
1.73724e-12
2.01579e-11
2.01291e-12
1.84347e-11
2.27965e-12
1.65219e-11
2.53708e-12
1.44275e-11
2.78352e-12
1.21599e-11
3.01756e-12
9.72893e-12
3.23863e-12
7.14453e-12
3.44617e-12
4.41642e-12
3.63991e-12
1.55528e-12
3.81994e-12
-1.42823e-12
3.98587e-12
-4.52358e-12
4.13701e-12
-7.71929e-12
4.27306e-12
-1.10042e-11
4.39415e-12
-1.43673e-11
4.49993e-12
-1.77971e-11
4.59029e-12
-2.1282e-11
4.66552e-12
-2.48108e-11
4.72528e-12
-2.8373e-11
4.77001e-12
-3.19569e-11
4.8003e-12
-3.55518e-11
4.81576e-12
-3.91472e-11
4.81651e-12
-4.27314e-11
4.80334e-12
-4.62948e-11
4.77609e-12
-4.98282e-11
4.73474e-12
-5.33206e-11
4.67988e-12
-5.67626e-11
4.61223e-12
-6.01447e-11
4.532e-12
-6.34574e-11
4.4396e-12
-6.66916e-11
4.33558e-12
-6.98387e-11
4.21973e-12
-7.28912e-11
4.09222e-12
-7.58412e-11
3.9542e-12
-7.8681e-11
3.8064e-12
-8.14037e-11
3.64934e-12
-8.40019e-11
3.48349e-12
-8.64688e-11
3.30875e-12
-8.87994e-11
3.12528e-12
-9.0988e-11
2.93379e-12
-9.30286e-11
2.73531e-12
-9.49166e-11
2.53064e-12
-9.66471e-11
2.31996e-12
-9.82161e-11
2.10361e-12
-9.96202e-11
1.88268e-12
-1.00856e-10
1.65755e-12
-1.01921e-10
1.42801e-12
-1.02814e-10
1.19471e-12
-1.03531e-10
9.58917e-13
-1.04071e-10
7.21411e-13
-1.04432e-10
4.82475e-13
-1.04614e-10
2.42331e-13
-1.04616e-10
1.73944e-15
-1.04439e-10
-2.38812e-13
-1.04082e-10
-4.79046e-13
-1.03546e-10
-7.18879e-13
-1.02834e-10
-9.57292e-13
-1.01947e-10
-1.19302e-12
-1.00888e-10
-1.42516e-12
-9.96576e-11
-1.65321e-12
-9.82595e-11
-1.87698e-12
-9.66972e-11
-2.09648e-12
-9.4975e-11
-2.31111e-12
-9.30966e-11
-2.52018e-12
-9.10665e-11
-2.7233e-12
-8.88897e-11
-2.91987e-12
-8.6571e-11
-3.10933e-12
-8.4116e-11
-3.29145e-12
-8.15305e-11
-3.46584e-12
-7.88207e-11
-3.63247e-12
-7.59942e-11
-3.79099e-12
-7.30576e-11
-3.93995e-12
-7.00179e-11
-4.07811e-12
-6.68823e-11
-4.20529e-12
-6.36583e-11
-4.32208e-12
-6.03551e-11
-4.42857e-12
-5.6981e-11
-4.5237e-12
-5.35447e-11
-4.60658e-12
-5.00557e-11
-4.67689e-12
-4.65227e-11
-4.73481e-12
-4.29554e-11
-4.7806e-12
-3.9364e-11
-4.81361e-12
-3.57574e-11
-4.83306e-12
-3.21463e-11
-4.83874e-12
-2.85409e-11
-4.83028e-12
-2.49505e-11
-4.80772e-12
-2.13864e-11
-4.77149e-12
-1.78596e-11
-4.72121e-12
-1.43796e-11
-4.65671e-12
-1.09577e-11
-4.57818e-12
-7.60404e-12
-4.48531e-12
-4.3283e-12
-4.37834e-12
-1.14306e-12
-4.25743e-12
1.94123e-12
-4.12168e-12
4.91553e-12
-3.97147e-12
7.76885e-12
-3.80796e-12
1.0491e-11
-3.63109e-12
1.30726e-11
-3.44073e-12
1.55036e-11
-3.23724e-12
1.7775e-11
-3.02086e-12
1.98786e-11
-2.79275e-12
2.18054e-11
-2.55447e-12
2.35472e-11
-2.30584e-12
2.50971e-11
-2.04656e-12
2.64481e-11
-1.77783e-12
2.75945e-11
-1.5007e-12
2.85319e-11
-1.21618e-12
2.92555e-11
-9.25857e-13
2.97619e-11
-6.31073e-13
3.00491e-11
-3.33454e-13
3.01146e-11
-3.5089e-14
2.99585e-11
2.62997e-13
2.95831e-11
5.60251e-13
2.89916e-11
8.54507e-13
2.81886e-11
1.14261e-12
2.71813e-11
1.42166e-12
2.59779e-11
1.68856e-12
2.45886e-11
1.94019e-12
2.30278e-11
2.17376e-12
2.13122e-11
2.38539e-12
1.94614e-11
2.56998e-12
1.74992e-11
2.72284e-12
1.54541e-11
2.83839e-12
1.33579e-11
2.90891e-12
1.12472e-11
2.92721e-12
9.16591e-12
2.88682e-12
7.16324e-12
2.77892e-12
5.29374e-12
2.59291e-12
3.61857e-12
2.31926e-12
2.20173e-12
1.95135e-12
1.10461e-12
1.48908e-12
3.76588e-13
9.47337e-13
3.38104e-14
3.77809e-13
-4.76398e-14
2.07127e-13
1.38258e-14
8.63366e-13
-1.31033e-12
2.14997e-12
-2.46885e-12
3.95724e-12
-3.46791e-12
6.18132e-12
-4.28066e-12
8.71785e-12
-4.89078e-12
1.147e-11
-5.31184e-12
1.4349e-11
-5.56472e-12
1.72757e-11
-5.66796e-12
2.01824e-11
-5.63775e-12
2.30096e-11
-5.4918e-12
2.57066e-11
-5.2467e-12
2.82275e-11
-4.91786e-12
3.05317e-11
-4.51729e-12
3.25857e-11
-4.05444e-12
3.43629e-11
-3.53892e-12
3.58423e-11
-2.98002e-12
3.70045e-11
-2.38812e-12
3.78342e-11
-1.77088e-12
3.83205e-11
-1.13422e-12
3.84561e-11
-4.83931e-13
3.82376e-11
1.74844e-13
3.76627e-11
8.3625e-13
3.67319e-11
1.49582e-12
3.54477e-11
2.14969e-12
3.38144e-11
2.79409e-12
3.1839e-11
3.4269e-12
2.95303e-11
4.04521e-12
2.68968e-11
4.64559e-12
2.395e-11
5.22622e-12
2.07017e-11
5.78515e-12
1.71645e-11
6.31986e-12
1.3353e-11
6.82883e-12
9.28146e-12
7.31024e-12
4.9653e-12
7.76245e-12
4.21266e-13
8.18487e-12
-4.3344e-12
8.5764e-12
-9.2847e-12
8.93632e-12
-1.44116e-11
9.26431e-12
-1.96975e-11
9.55953e-12
-2.51251e-11
9.82144e-12
-3.06757e-11
1.00502e-11
-3.63314e-11
1.02458e-11
-4.20747e-11
1.0408e-11
-4.78863e-11
1.05367e-11
-5.37488e-11
1.06322e-11
-5.96445e-11
1.0695e-11
-6.55558e-11
1.07254e-11
-7.14656e-11
1.07244e-11
-7.73561e-11
1.06927e-11
-8.32101e-11
1.06302e-11
-8.90118e-11
1.0537e-11
-9.47444e-11
1.04138e-11
-1.00393e-10
1.02614e-11
-1.05942e-10
1.00811e-11
-1.11377e-10
9.87393e-12
-1.16683e-10
9.64094e-12
-1.21846e-10
9.38255e-12
-1.26853e-10
9.09941e-12
-1.31691e-10
8.79265e-12
-1.36348e-10
8.46332e-12
-1.40813e-10
8.11294e-12
-1.45073e-10
7.74335e-12
-1.49119e-10
7.3551e-12
-1.52941e-10
6.94826e-12
-1.56529e-10
6.52368e-12
-1.59875e-10
6.08268e-12
-1.62971e-10
5.62692e-12
-1.65811e-10
5.15817e-12
-1.68387e-10
4.67786e-12
-1.70692e-10
4.18728e-12
-1.72723e-10
3.68735e-12
-1.74472e-10
3.17861e-12
-1.75938e-10
2.66206e-12
-1.77117e-10
2.13919e-12
-1.78006e-10
1.6113e-12
-1.78603e-10
1.07959e-12
-1.78906e-10
5.45334e-13
-1.78916e-10
9.95077e-15
-1.78632e-10
-5.24886e-13
-1.78055e-10
-1.05775e-12
-1.77185e-10
-1.58806e-12
-1.76026e-10
-2.11518e-12
-1.7458e-10
-2.63771e-12
-1.72851e-10
-3.1538e-12
-1.70843e-10
-3.66174e-12
-1.6856e-10
-4.16033e-12
-1.66008e-10
-4.64893e-12
-1.63193e-10
-5.12657e-12
-1.60122e-10
-5.59179e-12
-1.56801e-10
-6.04365e-12
-1.53239e-10
-6.48142e-12
-1.49444e-10
-6.90394e-12
-1.45426e-10
-7.31012e-12
-1.41193e-10
-7.69877e-12
-1.36756e-10
-8.06879e-12
-1.32126e-10
-8.41962e-12
-1.27314e-10
-8.75018e-12
-1.22333e-10
-9.05905e-12
-1.17194e-10
-9.34505e-12
-1.1191e-10
-9.60735e-12
-1.06495e-10
-9.84536e-12
-1.00962e-10
-1.0058e-11
-9.5325e-11
-1.0244e-11
-8.95997e-11
-1.04029e-11
-8.38003e-11
-1.05342e-11
-7.79422e-11
-1.06378e-11
-7.20416e-11
-1.07135e-11
-6.61143e-11
-1.07602e-11
-6.01767e-11
-1.0777e-11
-5.42455e-11
-1.07631e-11
-4.83368e-11
-1.07177e-11
-4.24673e-11
-1.06413e-11
-3.66546e-11
-1.05342e-11
-3.09153e-11
-1.0396e-11
-2.5267e-11
-1.02265e-11
-1.97272e-11
-1.00254e-11
-1.4312e-11
-9.79277e-12
-9.03885e-12
-9.52929e-12
-3.92545e-12
-9.23498e-12
1.01203e-12
-8.90923e-12
5.75736e-12
-8.55292e-12
1.02942e-11
-8.16729e-12
1.46068e-11
-7.75277e-12
1.86802e-11
-7.31027e-12
2.24993e-11
-6.84072e-12
2.605e-11
-6.34457e-12
2.93195e-11
-5.82368e-12
3.22954e-11
-5.2804e-12
3.49656e-11
-4.71579e-12
3.73196e-11
-4.13151e-12
3.9348e-11
-3.52996e-12
4.10426e-11
-2.91279e-12
4.23969e-11
-2.28228e-12
4.34062e-11
-1.64189e-12
4.4067e-11
-9.94867e-13
4.43772e-11
-3.4481e-13
4.43376e-11
3.03929e-13
4.39503e-11
9.47835e-13
4.32204e-11
1.58345e-12
4.21564e-11
2.20535e-12
4.07694e-11
2.80735e-12
3.90732e-11
3.38366e-12
3.70862e-11
3.92728e-12
3.48305e-11
4.43017e-12
3.23318e-11
4.8843e-12
2.96219e-11
5.28026e-12
2.67379e-11
5.60712e-12
2.37221e-11
5.85365e-12
2.0624e-11
6.00713e-12
1.74997e-11
6.05264e-12
1.44122e-11
5.97489e-12
1.1432e-11
5.75869e-12
8.63687e-12
5.38793e-12
6.10947e-12
4.84733e-12
3.93294e-12
4.12819e-12
2.18679e-12
3.23561e-12
9.36267e-13
2.19878e-12
2.14317e-13
1.09937e-12
1.66965e-13
3.82232e-13
-3.68227e-13
1.41465e-12
-2.34104e-12
3.12559e-12
-4.1811e-12
5.43844e-12
-5.78102e-12
8.24195e-12
-7.08463e-12
1.14174e-11
-8.0676e-12
1.48485e-11
-8.74428e-12
1.84295e-11
-9.14505e-12
2.20638e-11
-9.29983e-12
2.56627e-11
-9.23687e-12
2.91499e-11
-8.98131e-12
3.2458e-11
-8.55799e-12
3.55299e-11
-7.99027e-12
3.83137e-11
-7.30005e-12
4.07652e-11
-6.50579e-12
4.28485e-11
-5.6229e-12
4.45334e-11
-4.66668e-12
4.57964e-11
-3.6513e-12
4.66176e-11
-2.59092e-12
4.69812e-11
-1.4975e-12
4.68778e-11
-3.79954e-13
4.63003e-11
7.51757e-13
4.52464e-11
1.88923e-12
4.37176e-11
3.02531e-12
4.17159e-11
4.15206e-12
3.92476e-11
5.26308e-12
3.63213e-11
6.3539e-12
3.29472e-11
7.41906e-12
2.91384e-11
8.45403e-12
2.49101e-11
9.45484e-12
2.02777e-11
1.04174e-11
1.52591e-11
1.13382e-11
9.87292e-12
1.22146e-11
4.13847e-12
1.30435e-11
-1.92289e-12
1.38229e-11
-8.28947e-12
1.4551e-11
-1.49394e-11
1.52256e-11
-2.18495e-11
1.58457e-11
-2.89957e-11
1.64104e-11
-3.63545e-11
1.6918e-11
-4.39016e-11
1.73681e-11
-5.1612e-11
1.77607e-11
-5.94616e-11
1.80954e-11
-6.74266e-11
1.83722e-11
-7.54814e-11
1.85915e-11
-8.36019e-11
1.87533e-11
-9.17646e-11
1.88578e-11
-9.99444e-11
1.89059e-11
-1.08119e-10
1.88984e-11
-1.16264e-10
1.88365e-11
-1.24356e-10
1.87213e-11
-1.32373e-10
1.85537e-11
-1.40294e-10
1.83342e-11
-1.48097e-10
1.80638e-11
-1.5576e-10
1.77444e-11
-1.63263e-10
1.73776e-11
-1.70588e-10
1.6965e-11
-1.77715e-10
1.65086e-11
-1.84625e-10
1.601e-11
-1.91303e-10
1.54703e-11
-1.9773e-10
1.48911e-11
-2.03891e-10
1.42741e-11
-2.0977e-10
1.36221e-11
-2.15354e-10
1.29373e-11
-2.20627e-10
1.22212e-11
-2.25579e-10
1.14756e-11
-2.30197e-10
1.07019e-11
-2.34471e-10
9.90211e-12
-2.38391e-10
9.07869e-12
-2.41946e-10
8.2342e-12
-2.4513e-10
7.37081e-12
-2.47935e-10
6.49074e-12
-2.50353e-10
5.596e-12
-2.5238e-10
4.68845e-12
-2.54011e-10
3.77007e-12
-2.55243e-10
2.84299e-12
-2.56072e-10
1.90948e-12
-2.56498e-10
9.71733e-13
-2.56518e-10
3.15249e-14
-2.56134e-10
-9.08939e-13
-2.55347e-10
-1.84669e-12
-2.54157e-10
-2.7793e-12
-2.52568e-10
-3.70505e-12
-2.50584e-10
-4.62214e-12
-2.48209e-10
-5.52828e-12
-2.45449e-10
-6.42104e-12
-2.42311e-10
-7.2983e-12
-2.38802e-10
-8.15819e-12
-2.34929e-10
-8.9989e-12
-2.30703e-10
-9.81822e-12
-2.26132e-10
-1.06141e-11
-2.21228e-10
-1.1385e-11
-2.16002e-10
-1.21292e-11
-2.10467e-10
-1.28447e-11
-2.04637e-10
-1.35299e-11
-1.98525e-10
-1.41825e-11
-1.92145e-10
-1.48004e-11
-1.85513e-10
-1.53823e-11
-1.78644e-10
-1.59264e-11
-1.71557e-10
-1.64312e-11
-1.6427e-10
-1.68948e-11
-1.56799e-10
-1.73157e-11
-1.49165e-10
-1.76927e-11
-1.41385e-10
-1.80243e-11
-1.3348e-10
-1.83089e-11
-1.25471e-10
-1.85452e-11
-1.17377e-10
-1.87322e-11
-1.09222e-10
-1.88692e-11
-1.01027e-10
-1.89555e-11
-9.28141e-11
-1.899e-11
-8.46054e-11
-1.89717e-11
-7.64238e-11
-1.88997e-11
-6.82922e-11
-1.87733e-11
-6.02337e-11
-1.85926e-11
-5.22716e-11
-1.83577e-11
-4.44295e-11
-1.80682e-11
-3.67312e-11
-1.77242e-11
-2.91996e-11
-1.73252e-11
-2.18572e-11
-1.68715e-11
-1.47272e-11
-1.63643e-11
-7.8329e-12
-1.58037e-11
-1.19638e-12
-1.51901e-11
5.16137e-12
-1.45249e-11
1.12187e-11
-1.38098e-11
1.69552e-11
-1.30461e-11
2.23514e-11
-1.2236e-11
2.73873e-11
-1.13813e-11
3.20454e-11
-1.04835e-11
3.63103e-11
-9.54546e-12
4.01656e-11
-8.57077e-12
4.35966e-11
-7.56225e-12
4.65917e-11
-6.52396e-12
4.91398e-11
-5.46035e-12
5.12317e-11
-4.37518e-12
5.28618e-11
-3.27314e-12
5.40252e-11
-2.15995e-12
5.47194e-11
-1.04122e-12
5.49466e-11
7.64794e-14
5.47107e-11
1.18516e-12
5.40178e-11
2.27712e-12
5.28789e-11
3.34435e-12
5.13099e-11
4.37685e-12
4.93289e-11
5.36381e-12
4.69604e-11
6.2943e-12
4.4235e-11
7.15553e-12
4.11867e-11
7.9328e-12
3.78563e-11
8.61056e-12
3.42925e-11
9.17177e-12
3.05495e-11
9.59747e-12
2.66891e-11
9.86714e-12
2.27826e-11
9.959e-12
1.89091e-11
9.84955e-12
1.51538e-11
9.51466e-12
1.16088e-11
8.93215e-12
8.37243e-12
8.08347e-12
5.54259e-12
6.95827e-12
3.21355e-12
5.56458e-12
1.47184e-12
3.94177e-12
3.84317e-13
2.18743e-12
5.51234e-13
5.33133e-13
-9.03219e-13
1.87824e-12
-3.68462e-12
3.97165e-12
-6.27445e-12
6.71423e-12
-8.52396e-12
9.98546e-12
-1.03547e-11
1.36559e-11
-1.17379e-11
1.7597e-11
-1.26882e-11
2.16906e-11
-1.32403e-11
2.5827e-11
-1.34359e-11
2.99066e-11
-1.33144e-11
3.38387e-11
-1.29126e-11
3.75438e-11
-1.2264e-11
4.09533e-11
-1.14009e-11
4.40067e-11
-1.03537e-11
4.66522e-11
-9.15001e-12
4.88449e-11
-7.81507e-12
5.05483e-11
-6.37057e-12
5.17331e-11
-4.83677e-12
5.2375e-11
-3.23373e-12
5.24565e-11
-1.57864e-12
5.19643e-11
1.12747e-13
5.08895e-11
1.82598e-12
4.92293e-11
3.54899e-12
4.6984e-11
5.26985e-12
4.41574e-11
6.97801e-12
4.07572e-11
8.6637e-12
3.67932e-11
1.03182e-11
3.22782e-11
1.1934e-11
2.7228e-11
1.35043e-11
2.16603e-11
1.50224e-11
1.5595e-11
1.64825e-11
9.05382e-12
1.78796e-11
2.05973e-12
1.92088e-11
-5.36272e-12
2.04659e-11
-1.31876e-11
2.16478e-11
-2.13883e-11
2.27513e-11
-2.99367e-11
2.37738e-11
-3.88043e-11
2.47133e-11
-4.79624e-11
2.55679e-11
-5.73809e-11
2.63361e-11
-6.70299e-11
2.70167e-11
-7.68787e-11
2.76094e-11
-8.68968e-11
2.81132e-11
-9.7054e-11
2.85286e-11
-1.07319e-10
2.88561e-11
-1.17662e-10
2.90955e-11
-1.28053e-10
2.92478e-11
-1.38461e-10
2.93141e-11
-1.48857e-10
2.92947e-11
-1.59212e-10
2.91914e-11
-1.69496e-10
2.90058e-11
-1.79683e-10
2.87397e-11
-1.89744e-10
2.83944e-11
-1.99652e-10
2.79719e-11
-2.09382e-10
2.74744e-11
-2.18908e-10
2.69037e-11
-2.28205e-10
2.62622e-11
-2.3725e-10
2.5553e-11
-2.46019e-10
2.47786e-11
-2.54491e-10
2.39417e-11
-2.62645e-10
2.30449e-11
-2.7046e-10
2.20905e-11
-2.77919e-10
2.10813e-11
-2.85002e-10
2.00204e-11
-2.91692e-10
1.89112e-11
-2.97975e-10
1.77568e-11
-3.03834e-10
1.65602e-11
-3.09256e-10
1.53241e-11
-3.14229e-10
1.40521e-11
-3.18741e-10
1.27472e-11
-3.22782e-10
1.14125e-11
-3.26343e-10
1.00515e-11
-3.29414e-10
8.66784e-12
-3.3199e-10
7.2644e-12
-3.34065e-10
5.84424e-12
-3.35634e-10
4.41087e-12
-3.36693e-10
2.96792e-12
-3.37241e-10
1.51883e-12
-3.37276e-10
6.65685e-14
-3.36798e-10
-1.38596e-12
-3.35809e-10
-2.83516e-12
-3.34311e-10
-4.27732e-12
-3.32307e-10
-5.709e-12
-3.29803e-10
-7.12683e-12
-3.26804e-10
-8.52759e-12
-3.23317e-10
-9.90812e-12
-3.1935e-10
-1.12653e-11
-3.14912e-10
-1.25958e-11
-3.10014e-10
-1.38967e-11
-3.04667e-10
-1.51651e-11
-2.98884e-10
-1.63978e-11
-2.92678e-10
-1.75918e-11
-2.86063e-10
-1.87442e-11
-2.79055e-10
-1.98522e-11
-2.7167e-10
-2.09135e-11
-2.63928e-10
-2.1925e-11
-2.55846e-10
-2.28834e-11
-2.47443e-10
-2.3786e-11
-2.38739e-10
-2.46305e-11
-2.29756e-10
-2.54144e-11
-2.20515e-10
-2.61352e-11
-2.1104e-10
-2.67903e-11
-2.01355e-10
-2.73777e-11
-1.91484e-10
-2.78956e-11
-1.81451e-10
-2.83419e-11
-1.71282e-10
-2.87144e-11
-1.61004e-10
-2.90115e-11
-1.50643e-10
-2.92313e-11
-1.40227e-10
-2.93727e-11
-1.29783e-10
-2.94343e-11
-1.19339e-10
-2.94149e-11
-1.08925e-10
-2.93137e-11
-9.85691e-11
-2.91298e-11
-8.82998e-11
-2.88623e-11
-7.81461e-11
-2.85111e-11
-6.81378e-11
-2.80763e-11
-5.83039e-11
-2.75578e-11
-4.86737e-11
-2.69556e-11
-3.92759e-11
-2.62698e-11
-3.01381e-11
-2.55012e-11
-2.12893e-11
-2.46516e-11
-1.2758e-11
-2.37219e-11
-4.57003e-12
-2.27133e-11
3.24816e-12
-2.16281e-11
1.06707e-11
-2.04688e-11
1.76742e-11
-1.92382e-11
2.42345e-11
-1.79401e-11
3.03285e-11
-1.65777e-11
3.59371e-11
-1.51542e-11
4.10411e-11
-1.36747e-11
4.5622e-11
-1.21444e-11
4.96654e-11
-1.05685e-11
5.31586e-11
-8.95361e-12
5.609e-11
-7.30702e-12
5.84523e-11
-5.63589e-12
6.02406e-11
-3.94825e-12
6.14519e-11
-2.25331e-12
6.20877e-11
-5.6065e-13
6.21542e-11
1.11877e-12
6.16598e-11
2.7722e-12
6.06176e-11
4.38649e-12
5.90468e-11
5.94785e-12
5.69708e-11
7.44027e-12
5.44185e-11
8.8462e-12
5.14262e-11
1.01472e-11
4.8036e-11
1.1323e-11
4.42969e-11
1.23501e-11
4.02659e-11
1.32035e-11
3.60071e-11
1.3857e-11
3.1593e-11
1.42817e-11
2.71048e-11
1.4447e-11
2.26324e-11
1.43216e-11
1.82735e-11
1.38741e-11
1.41316e-11
1.30746e-11
1.03156e-11
1.18995e-11
6.9366e-12
1.0337e-11
4.10549e-12
8.39525e-12
1.93299e-12
6.11501e-12
5.26159e-13
3.59493e-12
1.07712e-12
6.47003e-13
-1.55167e-12
2.24626e-12
-5.2831e-12
4.65757e-12
-8.6862e-12
7.74846e-12
-1.1616e-11
1.13824e-11
-1.3988e-11
1.54205e-11
-1.57752e-11
1.9727e-11
-1.69943e-11
2.41715e-11
-1.7687e-11
2.86357e-11
-1.79021e-11
3.30113e-11
-1.76901e-11
3.71993e-11
-1.70993e-11
4.11109e-11
-1.61749e-11
4.46675e-11
-1.49585e-11
4.78022e-11
-1.34891e-11
5.04558e-11
-1.1804e-11
5.25786e-11
-9.93694e-12
5.41279e-11
-7.91902e-12
5.5069e-11
-5.77834e-12
5.53749e-11
-3.54007e-12
5.50245e-11
-1.22858e-12
5.40032e-11
1.13419e-12
5.2301e-11
3.52898e-12
4.99131e-11
5.93719e-12
4.68397e-11
8.34285e-12
4.30859e-11
1.07317e-11
3.86596e-11
1.30898e-11
3.35729e-11
1.54047e-11
2.78415e-11
1.76658e-11
2.14828e-11
1.9863e-11
1.45177e-11
2.19872e-11
6.9696e-12
2.40304e-11
-1.13653e-12
2.59851e-11
-9.77316e-12
2.78448e-11
-1.89111e-11
2.96039e-11
-2.85208e-11
3.12571e-11
-3.85701e-11
3.28001e-11
-4.90259e-11
3.42296e-11
-5.98545e-11
3.55419e-11
-7.1022e-11
3.67347e-11
-8.24926e-11
3.78064e-11
-9.42309e-11
3.8755e-11
-1.06202e-10
3.95794e-11
-1.18367e-10
4.02792e-11
-1.30692e-10
4.0854e-11
-1.43141e-10
4.13041e-11
-1.55676e-10
4.16301e-11
-1.68262e-10
4.18331e-11
-1.80863e-10
4.19144e-11
-1.93444e-10
4.18754e-11
-2.0597e-10
4.17177e-11
-2.18408e-10
4.14432e-11
-2.30722e-10
4.10542e-11
-2.42882e-10
4.05534e-11
-2.54853e-10
3.99436e-11
-2.66607e-10
3.92277e-11
-2.78113e-10
3.84086e-11
-2.8934e-10
3.74896e-11
-3.0026e-10
3.64741e-11
-3.10847e-10
3.53657e-11
-3.21075e-10
3.41682e-11
-3.30917e-10
3.28861e-11
-3.4035e-10
3.15231e-11
-3.49351e-10
3.00826e-11
-3.57899e-10
2.85689e-11
-3.65974e-10
2.69862e-11
-3.73556e-10
2.53388e-11
-3.80627e-10
2.36314e-11
-3.87172e-10
2.18684e-11
-3.93175e-10
2.00544e-11
-3.98622e-10
1.81939e-11
-4.03501e-10
1.62914e-11
-4.078e-10
1.43515e-11
-4.11511e-10
1.2379e-11
-4.14625e-10
1.03783e-11
-4.17134e-10
8.35414e-12
-4.19034e-10
6.31114e-12
-4.20321e-10
4.25405e-12
-4.20991e-10
2.18788e-12
-4.21043e-10
1.17739e-13
-4.20477e-10
-1.95196e-12
-4.19295e-10
-4.0169e-12
-4.175e-10
-6.07229e-12
-4.15096e-10
-8.11314e-12
-4.12088e-10
-1.01345e-11
-4.08484e-10
-1.21318e-11
-4.04291e-10
-1.41007e-11
-3.9952e-10
-1.60366e-11
-3.94181e-10
-1.79349e-11
-3.88286e-10
-1.9791e-11
-3.8185e-10
-2.16011e-11
-3.74887e-10
-2.33609e-11
-3.67414e-10
-2.50658e-11
-3.59447e-10
-2.67117e-11
-3.51006e-10
-2.82943e-11
-3.42109e-10
-2.98099e-11
-3.32778e-10
-3.1255e-11
-3.23036e-10
-3.26251e-11
-3.12906e-10
-3.39162e-11
-3.02412e-10
-3.5125e-11
-2.91578e-10
-3.6248e-11
-2.80432e-10
-3.72817e-11
-2.69e-10
-3.82225e-11
-2.57311e-10
-3.90672e-11
-2.45394e-10
-3.98132e-11
-2.33279e-10
-4.04577e-11
-2.20996e-10
-4.09977e-11
-2.08576e-10
-4.14313e-11
-1.96052e-10
-4.17559e-11
-1.83456e-10
-4.19691e-11
-1.70822e-10
-4.20694e-11
-1.58182e-10
-4.20551e-11
-1.4557e-10
-4.19249e-11
-1.33022e-10
-4.16781e-11
-1.20571e-10
-4.13134e-11
-1.08252e-10
-4.08301e-11
-9.61001e-11
-4.02284e-11
-8.41495e-11
-3.95083e-11
-7.24348e-11
-3.86701e-11
-6.09906e-11
-3.77142e-11
-4.98501e-11
-3.66416e-11
-3.90466e-11
-3.54541e-11
-2.86137e-11
-3.41542e-11
-1.85829e-11
-3.2744e-11
-8.98535e-12
-3.12258e-11
1.48679e-13
-2.96034e-11
8.79092e-12
-2.78807e-11
1.69141e-11
-2.60622e-11
2.44914e-11
-2.41536e-11
3.14985e-11
-2.21605e-11
3.79135e-11
-2.00891e-11
4.37155e-11
-1.79467e-11
4.88869e-11
-1.57413e-11
5.34127e-11
-1.34811e-11
5.72804e-11
-1.11759e-11
6.0481e-11
-8.83694e-12
6.30086e-11
-6.47574e-12
6.48607e-11
-4.10482e-12
6.6039e-11
-1.73841e-12
6.65494e-11
6.08208e-13
6.64027e-11
2.91852e-12
6.56151e-11
5.17399e-12
6.4208e-11
7.35466e-12
6.22086e-11
9.43928e-12
5.96508e-11
1.14042e-11
5.65757e-11
1.3223e-11
5.30303e-11
1.48681e-11
4.90703e-11
1.63097e-11
4.47606e-11
1.75142e-11
4.01724e-11
1.84459e-11
3.53859e-11
1.90681e-11
3.04911e-11
1.93418e-11
2.55859e-11
1.92268e-11
2.07757e-11
1.86836e-11
1.61739e-11
1.7676e-11
1.19002e-11
1.61739e-11
8.07743e-12
1.416e-11
4.83374e-12
1.16385e-11
2.30488e-12
8.64391e-12
6.36796e-13
5.26328e-12
1.71361e-12
7.24116e-13
-2.2765e-12
2.51399e-12
-7.07271e-12
5.17089e-12
-1.1342e-11
8.52625e-12
-1.4973e-11
1.24229e-11
-1.78871e-11
1.67135e-11
-2.00649e-11
2.12538e-11
-2.15332e-11
2.59071e-11
-2.234e-11
3.05466e-11
-2.25431e-11
3.50573e-11
-2.22021e-11
3.93344e-11
-2.13762e-11
4.32822e-11
-2.01223e-11
4.6817e-11
-1.84925e-11
4.98639e-11
-1.65367e-11
5.23594e-11
-1.43003e-11
5.4249e-11
-1.18262e-11
5.54857e-11
-9.15536e-12
5.60317e-11
-6.32366e-12
5.58562e-11
-3.3645e-12
5.49354e-11
-3.08913e-13
5.32538e-11
2.81538e-12
5.08006e-11
5.98254e-12
4.757e-11
9.16794e-12
4.35627e-11
1.23507e-11
3.87835e-11
1.55112e-11
3.32415e-11
1.86315e-11
2.69508e-11
2.16955e-11
1.99285e-11
2.46882e-11
1.2195e-11
2.75964e-11
3.77427e-12
3.04081e-11
-5.30774e-12
3.31122e-11
-1.50222e-11
3.5699e-11
-2.53377e-11
3.816e-11
-3.62215e-11
4.04875e-11
-4.76393e-11
4.26742e-11
-5.95544e-11
4.47149e-11
-7.19293e-11
4.66045e-11
-8.47259e-11
4.83381e-11
-9.79042e-11
4.99128e-11
-1.11424e-10
5.1326e-11
-1.25244e-10
5.25751e-11
-1.39324e-10
5.36589e-11
-1.53622e-10
5.45769e-11
-1.68097e-10
5.5328e-11
-1.82706e-10
5.59128e-11
-1.97407e-10
5.6332e-11
-2.12161e-10
5.65865e-11
-2.26925e-10
5.66781e-11
-2.41659e-10
5.66091e-11
-2.56324e-10
5.63816e-11
-2.70879e-10
5.59981e-11
-2.85286e-10
5.54614e-11
-2.99508e-10
5.4775e-11
-3.13506e-10
5.39425e-11
-3.27247e-10
5.29676e-11
-3.40694e-10
5.1855e-11
-3.53813e-10
5.06089e-11
-3.66573e-10
4.92338e-11
-3.78941e-10
4.77341e-11
-3.90887e-10
4.61147e-11
-4.02383e-10
4.43813e-11
-4.134e-10
4.25392e-11
-4.23912e-10
4.05937e-11
-4.33894e-10
3.85505e-11
-4.43322e-10
3.64149e-11
-4.52176e-10
3.41924e-11
-4.60434e-10
3.18893e-11
-4.68077e-10
2.95116e-11
-4.75087e-10
2.70651e-11
-4.8145e-10
2.45561e-11
-4.87149e-10
2.19909e-11
-4.92173e-10
1.93755e-11
-4.96511e-10
1.67161e-11
-5.00152e-10
1.4019e-11
-5.03088e-10
1.12906e-11
-5.05314e-10
8.5372e-12
-5.06824e-10
5.76487e-12
-5.07616e-10
2.97985e-12
-5.07688e-10
1.89012e-13
-5.07039e-10
-2.60105e-12
-5.05672e-10
-5.38437e-12
-5.0359e-10
-8.15476e-12
-5.00797e-10
-1.09058e-11
-4.973e-10
-1.36309e-11
-4.93108e-10
-1.6324e-11
-4.88229e-10
-1.89791e-11
-4.82676e-10
-2.15902e-11
-4.7646e-10
-2.41511e-11
-4.69595e-10
-2.66557e-11
-4.62098e-10
-2.90981e-11
-4.53986e-10
-3.1473e-11
-4.45277e-10
-3.37745e-11
-4.35992e-10
-3.59971e-11
-4.26152e-10
-3.8135e-11
-4.15781e-10
-4.01826e-11
-4.049e-10
-4.21349e-11
-3.93538e-10
-4.39871e-11
-3.8172e-10
-4.57337e-11
-3.69475e-10
-4.73699e-11
-3.56832e-10
-4.8891e-11
-3.43821e-10
-5.02923e-11
-3.30474e-10
-5.15698e-11
-3.16824e-10
-5.27188e-11
-3.02902e-10
-5.37351e-11
-2.88745e-10
-5.46154e-11
-2.74388e-10
-5.53559e-11
-2.59866e-10
-5.59535e-11
-2.45217e-10
-5.64054e-11
-2.30478e-10
-5.67087e-11
-2.15686e-10
-5.68607e-11
-2.00882e-10
-5.68596e-11
-1.86104e-10
-5.67034e-11
-1.71391e-10
-5.63908e-11
-1.56783e-10
-5.59211e-11
-1.42321e-10
-5.5293e-11
-1.28043e-10
-5.45061e-11
-1.1399e-10
-5.35611e-11
-1.00201e-10
-5.24583e-11
-8.67164e-11
-5.11987e-11
-7.35739e-11
-4.97839e-11
-6.08123e-11
-4.82157e-11
-4.84691e-11
-4.6497e-11
-3.65805e-11
-4.46316e-11
-2.51828e-11
-4.2623e-11
-1.43105e-11
-4.04757e-11
-3.99585e-12
-3.81953e-11
5.72961e-12
-3.57876e-11
1.48361e-11
-3.32596e-11
2.32959e-11
-3.06195e-11
3.10831e-11
-2.78761e-11
3.81746e-11
-2.50386e-11
4.45509e-11
-2.21177e-11
5.01945e-11
-1.91253e-11
5.50906e-11
-1.60735e-11
5.92296e-11
-1.29767e-11
6.2605e-11
-9.85092e-12
6.52135e-11
-6.71329e-12
6.70574e-11
-3.58193e-12
6.81438e-11
-4.77388e-13
6.84838e-11
2.57815e-12
6.80957e-11
5.56137e-12
6.7004e-11
8.4464e-12
6.52385e-11
1.12047e-11
6.28362e-11
1.38058e-11
5.9843e-11
1.62169e-11
5.63108e-11
1.84014e-11
5.22991e-11
2.03209e-11
4.78784e-11
2.19347e-11
4.31264e-11
2.31984e-11
3.81291e-11
2.40654e-11
3.29829e-11
2.44877e-11
2.77923e-11
2.44173e-11
2.26697e-11
2.38061e-11
1.77359e-11
2.26093e-11
1.31201e-11
2.07898e-11
8.95802e-12
1.83225e-11
5.39446e-12
1.52019e-11
2.58835e-12
1.14497e-11
7.18861e-13
7.13264e-12
2.43233e-12
7.71784e-13
-3.0485e-12
2.68974e-12
-8.99175e-12
5.51526e-12
-1.41657e-11
9.0491e-12
-1.85066e-11
1.3114e-11
-2.19539e-11
1.75488e-11
-2.45017e-11
2.22044e-11
-2.61881e-11
2.69378e-11
-2.70722e-11
3.16165e-11
-2.72217e-11
3.61198e-11
-2.6706e-11
4.03377e-11
-2.5595e-11
4.4171e-11
-2.39555e-11
4.75306e-11
-2.18518e-11
5.03381e-11
-1.93438e-11
5.25254e-11
-1.64874e-11
5.40334e-11
-1.33351e-11
5.48135e-11
-9.93553e-12
5.48247e-11
-6.33412e-12
5.40337e-11
-2.57302e-12
5.24153e-11
1.30964e-12
4.99516e-11
5.27882e-12
4.66316e-11
9.30198e-12
4.245e-11
1.33496e-11
3.7407e-11
1.73938e-11
3.15086e-11
2.14098e-11
2.47652e-11
2.53753e-11
1.71914e-11
2.92693e-11
8.80663e-12
3.30727e-11
-3.65963e-13
3.6769e-11
-1.03005e-11
4.03424e-11
-2.09674e-11
4.37788e-11
-3.23343e-11
4.70659e-11
-4.4367e-11
5.01925e-11
-5.70287e-11
5.31485e-11
-7.02802e-11
5.59256e-11
-8.40814e-11
5.85159e-11
-9.83907e-11
6.09131e-11
-1.13164e-10
6.31117e-11
-1.28359e-10
6.5107e-11
-1.43928e-10
6.68954e-11
-1.59827e-10
6.8474e-11
-1.76009e-10
6.98411e-11
-1.92428e-10
7.09955e-11
-2.09037e-10
7.19365e-11
-2.25789e-10
7.26645e-11
-2.42638e-10
7.31802e-11
-2.59537e-10
7.34848e-11
-2.76439e-10
7.35804e-11
-2.933e-10
7.34696e-11
-3.10074e-10
7.31551e-11
-3.26717e-10
7.26406e-11
-3.43185e-10
7.19296e-11
-3.59437e-10
7.10265e-11
-3.7543e-10
6.99356e-11
-3.91124e-10
6.86617e-11
-4.0648e-10
6.72105e-11
-4.21459e-10
6.55875e-11
-4.36024e-10
6.37986e-11
-4.50141e-10
6.18503e-11
-4.63774e-10
5.97482e-11
-4.76892e-10
5.74988e-11
-4.89462e-10
5.51093e-11
-5.01455e-10
5.25868e-11
-5.12843e-10
4.99382e-11
-5.236e-10