/*--------------------------------*- C++ -*----------------------------------*\
  =========                 |
  \\      /  F ield         | OpenFOAM: The Open Source CFD Toolbox
   \\    /   O peration     | Website:  https://openfoam.org
    \\  /    A nd           | Version:  7
     \\/     M anipulation  |
\*---------------------------------------------------------------------------*/
FoamFile
{
    version     2.0;
    format      ascii;
    class       volScalarField;
    location    "0.0375";
    object      p;
}
// * * * * * * * * * * * * * * * * * * * * * * * * * * * * * * * * * * * * * //

dimensions      [0 2 -2 0 0 0 0];

internalField   nonuniform List<scalar> 
51200
(
-1.16248e-08
1.03057e-06
2.41016e-06
3.66226e-06
4.29382e-06
4.19171e-06
3.51019e-06
2.57473e-06
1.55245e-06
4.809e-07
-6.44747e-07
-1.82586e-06
-3.02e-06
-4.15366e-06
-5.17043e-06
-6.05061e-06
-6.80892e-06
-7.46281e-06
-7.98849e-06
-8.34595e-06
-8.53562e-06
-8.6041e-06
-8.59919e-06
-8.52151e-06
-8.32481e-06
-7.9611e-06
-7.41991e-06
-6.72648e-06
-5.91233e-06
-4.99249e-06
-3.96469e-06
-2.8181e-06
-1.54426e-06
-1.44873e-07
1.37173e-06
2.9999e-06
4.73989e-06
6.5932e-06
8.55638e-06
1.06209e-05
1.27803e-05
1.50337e-05
1.73807e-05
1.98192e-05
2.23471e-05
2.49633e-05
2.76658e-05
3.04526e-05
3.33217e-05
3.62719e-05
3.93005e-05
4.24041e-05
4.55811e-05
4.88328e-05
5.21593e-05
5.55556e-05
5.90138e-05
6.25307e-05
6.61098e-05
6.9755e-05
7.34635e-05
7.7227e-05
8.10381e-05
8.48944e-05
8.87965e-05
9.27439e-05
9.67333e-05
0.00010076
0.00010482
0.000108916
0.00011305
0.000117223
0.000121431
0.000125667
0.000129928
0.000134213
0.000138523
0.000142856
0.000147207
0.00015157
0.000155938
0.000160308
0.000164673
0.000169029
0.000173371
0.000177697
0.000182005
0.000186294
0.000190558
0.000194792
0.000198993
0.00020316
0.00020729
0.000211382
0.00021543
0.000219431
0.000223383
0.000227288
0.000231145
0.000234952
0.000238707
0.000242406
0.000246049
0.000249635
0.000253165
0.000256633
0.000260035
0.000263366
0.000266618
0.000269787
0.000272871
0.000275868
0.000278774
0.000281582
0.000284286
0.000286881
0.000289371
0.000291762
0.000294056
0.000296256
0.000298357
0.000300351
0.000302232
0.000303998
0.000305651
0.000307193
0.000308623
0.000309933
0.000311116
0.000312164
0.000313074
0.00031385
0.000314496
0.000315014
0.000315401
0.000315651
0.000315763
0.000315734
0.000315563
0.000315249
0.00031479
0.000314187
0.000313444
0.000312567
0.000311562
0.000310434
0.000309191
0.000307841
0.000306396
0.000304871
0.00030329
0.000301686
0.0003001
0.000298577
0.000297163
0.000295914
0.00029489
0.000294161
0.000293806
0.000293826
1.04965e-06
2.31144e-06
3.45475e-06
4.37268e-06
4.91367e-06
4.93059e-06
4.46628e-06
3.67752e-06
2.74509e-06
1.76737e-06
7.73536e-07
-2.25431e-07
-1.21924e-06
-2.18695e-06
-3.08169e-06
-3.86509e-06
-4.53714e-06
-5.11448e-06
-5.60008e-06
-5.96732e-06
-6.18242e-06
-6.24213e-06
-6.1752e-06
-6.01279e-06
-5.75852e-06
-5.38791e-06
-4.87692e-06
-4.22271e-06
-3.43749e-06
-2.53362e-06
-1.51626e-06
-3.84554e-07
8.64742e-07
2.2341e-06
3.72196e-06
5.32189e-06
7.02809e-06
8.83975e-06
1.07584e-05
1.27817e-05
1.49032e-05
1.71175e-05
1.94226e-05
2.1819e-05
2.43063e-05
2.68817e-05
2.95412e-05
3.22825e-05
3.5106e-05
3.8011e-05
4.09937e-05
4.40482e-05
4.71717e-05
5.03674e-05
5.36393e-05
5.69854e-05
6.03973e-05
6.38675e-05
6.7396e-05
7.09861e-05
7.46376e-05
7.83435e-05
8.20961e-05
8.58927e-05
8.97353e-05
9.36252e-05
9.75592e-05
0.000101531
0.000105537
0.000109576
0.000113652
0.000117766
0.000121915
0.000126092
0.000130293
0.000134518
0.000138767
0.000143039
0.000147327
0.000151624
0.000155924
0.000160226
0.000164527
0.000168822
0.000173102
0.000177361
0.000181598
0.000185813
0.000190009
0.000194182
0.000198326
0.000202433
0.0002065
0.000210526
0.000214511
0.000218457
0.000222358
0.000226212
0.000230015
0.000233765
0.000237461
0.000241105
0.000244695
0.000248231
0.000251707
0.000255119
0.000258462
0.000261733
0.000264929
0.000268048
0.000271084
0.000274032
0.000276888
0.000279646
0.000282301
0.000284853
0.000287304
0.000289657
0.000291916
0.000294079
0.000296141
0.000298098
0.000299944
0.000301677
0.000303297
0.000304806
0.000306202
0.000307483
0.000308641
0.000309668
0.00031056
0.000311318
0.000311949
0.000312457
0.000312844
0.000313106
0.000313236
0.000313231
0.000313089
0.000312809
0.000312393
0.000311843
0.000311165
0.000310367
0.000309455
0.000308434
0.00030731
0.000306093
0.000304795
0.000303434
0.000302033
0.000300621
0.000299235
0.000297914
0.000296699
0.000295633
0.00029476
0.000294129
0.000293808
0.000293829
3.10917e-06
4.19876e-06
5.00716e-06
5.57623e-06
5.87042e-06
5.8407e-06
5.45671e-06
4.77519e-06
3.9186e-06
2.98754e-06
2.05129e-06
1.14584e-06
2.7139e-07
-5.73081e-07
-1.37127e-06
-2.08926e-06
-2.69636e-06
-3.19752e-06
-3.61674e-06
-3.95535e-06
-4.18338e-06
-4.26392e-06
-4.18833e-06
-3.98385e-06
-3.68132e-06
-3.28549e-06
-2.77989e-06
-2.1499e-06
-1.39202e-06
-5.07946e-07
4.97409e-07
1.61618e-06
2.84509e-06
4.18869e-06
5.6514e-06
7.22901e-06
8.91142e-06
1.06934e-05
1.25784e-05
1.45688e-05
1.66592e-05
1.88416e-05
2.11137e-05
2.34771e-05
2.59321e-05
2.84739e-05
3.10971e-05
3.37996e-05
3.65832e-05
3.94482e-05
4.23903e-05
4.54036e-05
4.84853e-05
5.1637e-05
5.48628e-05
5.81626e-05
6.15311e-05
6.49611e-05
6.84495e-05
7.19968e-05
7.56019e-05
7.92595e-05
8.29632e-05
8.67108e-05
9.05041e-05
9.4344e-05
9.82274e-05
0.00010215
0.000106108
0.000110102
0.000114133
0.0001182
0.000122299
0.000126427
0.00013058
0.000134758
0.00013896
0.000143183
0.000147421
0.000151665
0.000155909
0.000160153
0.000164398
0.000168639
0.000172866
0.00017707
0.000181249
0.000185404
0.000189541
0.00019366
0.000197753
0.000201812
0.000205829
0.000209802
0.000213737
0.000217636
0.000221495
0.000225308
0.000229068
0.000232772
0.000236421
0.000240016
0.000243559
0.000247049
0.000250479
0.000253843
0.000257136
0.000260355
0.000263502
0.000266576
0.00026957
0.000272479
0.000275294
0.00027801
0.000280627
0.000283143
0.000285563
0.000287888
0.00029012
0.000292254
0.000294285
0.00029621
0.000298027
0.000299733
0.000301329
0.000302812
0.000304181
0.000305435
0.000306568
0.000307575
0.000308452
0.0003092
0.000309822
0.000310324
0.000310711
0.00031098
0.000311126
0.000311143
0.000311027
0.000310779
0.000310401
0.000309897
0.000309274
0.000308539
0.000307698
0.000306758
0.000305726
0.00030461
0.000303424
0.000302184
0.000300913
0.000299638
0.000298388
0.000297201
0.00029611
0.000295151
0.000294359
0.000293772
0.000293451
0.000293438
5.57425e-06
6.33247e-06
6.88975e-06
7.1447e-06
7.11864e-06
6.87822e-06
6.43569e-06
5.80594e-06
5.03035e-06
4.1694e-06
3.28283e-06
2.41296e-06
1.59163e-06
8.25088e-07
1.01997e-07
-5.65237e-07
-1.14142e-06
-1.60426e-06
-1.95964e-06
-2.22849e-06
-2.41567e-06
-2.49667e-06
-2.44335e-06
-2.25182e-06
-1.93929e-06
-1.52119e-06
-1.00004e-06
-3.71293e-07
3.72289e-07
1.23829e-06
2.2273e-06
3.33197e-06
4.54568e-06
5.86936e-06
7.30801e-06
8.86175e-06
1.05229e-05
1.22842e-05
1.41456e-05
1.61088e-05
1.81699e-05
2.03235e-05
2.25678e-05
2.49038e-05
2.73299e-05
2.98412e-05
3.2433e-05
3.5104e-05
3.78543e-05
4.06825e-05
4.35852e-05
4.65607e-05
4.96088e-05
5.2729e-05
5.59196e-05
5.91785e-05
6.2504e-05
6.58946e-05
6.93475e-05
7.28586e-05
7.64233e-05
8.00372e-05
8.36979e-05
8.74047e-05
9.11579e-05
9.49554e-05
9.87936e-05
0.00010267
0.000106586
0.000110541
0.000114536
0.000118566
0.000122624
0.000126709
0.000130821
0.00013496
0.000139121
0.000143301
0.000147492
0.000151688
0.000155885
0.000160081
0.000164274
0.000168462
0.000172636
0.00017679
0.00018092
0.000185027
0.000189114
0.000193182
0.000197226
0.000201239
0.000205213
0.000209148
0.000213044
0.000216903
0.000220724
0.000224499
0.00022822
0.000231885
0.000235495
0.00023905
0.000242552
0.000245998
0.000249384
0.000252703
0.000255951
0.000259125
0.000262228
0.000265259
0.000268214
0.000271086
0.000273867
0.000276552
0.000279137
0.000281625
0.000284019
0.000286321
0.000288531
0.000290643
0.000292649
0.000294548
0.000296338
0.00029802
0.000299594
0.000301056
0.000302404
0.000303634
0.000304743
0.000305729
0.000306592
0.000307334
0.000307956
0.000308461
0.00030885
0.000309125
0.000309283
0.000309318
0.000309228
0.00030901
0.000308668
0.000308206
0.000307629
0.000306945
0.00030616
0.000305282
0.000304319
0.000303281
0.00030218
0.000301032
0.000299857
0.000298677
0.00029752
0.000296415
0.000295392
0.000294484
0.00029372
0.000293132
0.000292766
0.000292655
8.01613e-06
8.38253e-06
8.67397e-06
8.72232e-06
8.49265e-06
8.06057e-06
7.50529e-06
6.84681e-06
6.10947e-06
5.32126e-06
4.50196e-06
3.67864e-06
2.89096e-06
2.16692e-06
1.50754e-06
9.01515e-07
3.56479e-07
-9.77608e-08
-4.38549e-07
-6.66752e-07
-7.97041e-07
-8.36577e-07
-7.75306e-07
-5.9786e-07
-2.97794e-07
1.20312e-07
6.47725e-07
1.28068e-06
2.02243e-06
2.87782e-06
3.8495e-06
4.93727e-06
6.13782e-06
7.44774e-06
8.86611e-06
1.03936e-05
1.20297e-05
1.37711e-05
1.56131e-05
1.75521e-05
1.95853e-05
2.17112e-05
2.39296e-05
2.62391e-05
2.86356e-05
3.11149e-05
3.36755e-05
3.63177e-05
3.90389e-05
4.18342e-05
4.47e-05
4.7638e-05
5.06523e-05
5.37427e-05
5.69032e-05
6.01276e-05
6.3415e-05
6.67676e-05
7.01848e-05
7.36602e-05
7.71859e-05
8.07579e-05
8.4377e-05
8.80452e-05
9.1761e-05
9.55198e-05
9.93172e-05
0.000103152
0.000107028
0.000110947
0.000114907
0.000118901
0.000122922
0.000126968
0.000131041
0.000135141
0.000139264
0.0001434
0.000147543
0.00015169
0.00015584
0.000159991
0.000164139
0.000168276
0.000172397
0.000176499
0.000180582
0.000184645
0.000188689
0.000192712
0.000196709
0.000200675
0.000204607
0.000208504
0.000212366
0.000216191
0.000219975
0.00022371
0.000227392
0.000231017
0.000234589
0.000238106
0.00024157
0.000244976
0.000248319
0.000251594
0.0002548
0.000257934
0.000260996
0.000263988
0.000266905
0.000269742
0.000272491
0.000275145
0.000277704
0.000280167
0.000282538
0.000284818
0.000287005
0.000289093
0.000291077
0.000292953
0.00029472
0.000296378
0.000297929
0.000299371
0.0003007
0.000301911
0.000303002
0.00030397
0.00030482
0.000305556
0.00030618
0.000306691
0.000307089
0.000307373
0.000307542
0.000307592
0.000307522
0.000307332
0.000307023
0.000306598
0.000306063
0.000305424
0.000304688
0.000303863
0.000302958
0.000301986
0.000300956
0.000299883
0.000298783
0.000297676
0.000296585
0.000295535
0.000294553
0.000293664
0.000292897
0.000292276
0.000291826
0.000291561
1.04677e-05
1.03773e-05
1.03282e-05
1.01719e-05
9.81891e-06
9.29266e-06
8.65584e-06
7.94759e-06
7.19716e-06
6.42924e-06
5.66013e-06
4.89449e-06
4.14356e-06
3.44131e-06
2.81503e-06
2.26253e-06
1.77167e-06
1.34675e-06
1.00972e-06
7.82426e-07
6.70447e-07
6.64268e-07
7.54767e-07
9.45052e-07
1.24429e-06
1.65523e-06
2.1761e-06
2.80741e-06
3.54947e-06
4.40012e-06
5.35904e-06
6.42996e-06
7.61586e-06
8.91356e-06
1.03162e-05
1.18214e-05
1.34327e-05
1.51514e-05
1.69718e-05
1.88872e-05
2.08947e-05
2.2995e-05
2.51888e-05
2.74724e-05
2.98399e-05
3.22884e-05
3.48189e-05
3.7432e-05
4.01243e-05
4.28901e-05
4.57257e-05
4.8633e-05
5.16161e-05
5.46751e-05
5.78045e-05
6.09982e-05
6.42543e-05
6.75743e-05
7.09572e-05
7.43969e-05
7.78855e-05
8.14197e-05
8.50018e-05
8.8634e-05
9.23138e-05
9.60358e-05
9.97963e-05
0.000103596
0.000107437
0.000111322
0.000115247
0.000119205
0.000123189
0.000127199
0.000131235
0.000135296
0.000139378
0.000143471
0.000147568
0.000151668
0.000155771
0.000159878
0.000163983
0.000168076
0.000172151
0.000176207
0.000180245
0.000184268
0.000188274
0.000192258
0.000196213
0.000200135
0.000204025
0.000207884
0.000211711
0.000215501
0.000219247
0.000222943
0.000226584
0.00023017
0.000233704
0.000237186
0.000240616
0.000243986
0.000247292
0.000250528
0.000253694
0.000256792
0.000259821
0.000262779
0.000265663
0.000268467
0.000271184
0.000273809
0.000276341
0.000278781
0.00028113
0.000283387
0.000285549
0.000287612
0.000289573
0.000291427
0.000293173
0.000294812
0.000296343
0.000297765
0.000299076
0.000300273
0.000301352
0.000302311
0.000303155
0.000303887
0.000304511
0.000305027
0.000305434
0.000305728
0.000305908
0.000305971
0.000305918
0.000305749
0.000305466
0.000305073
0.000304574
0.000303974
0.00030328
0.0003025
0.000301646
0.000300727
0.000299755
0.00029874
0.000297696
0.000296641
0.000295595
0.000294578
0.000293613
0.000292721
0.000291924
0.000291243
0.000290679
0.000290226
1.28392e-05
1.23671e-05
1.19872e-05
1.15923e-05
1.11011e-05
1.04956e-05
9.81223e-06
9.07813e-06
8.30871e-06
7.52808e-06
6.76947e-06
6.04133e-06
5.3332e-06
4.65436e-06
4.03655e-06
3.50185e-06
3.04828e-06
2.66733e-06
2.36091e-06
2.14357e-06
2.03174e-06
2.03032e-06
2.13515e-06
2.343e-06
2.65275e-06
3.06427e-06
3.58111e-06
4.20842e-06
4.94711e-06
5.7937e-06
6.74546e-06
7.80461e-06
8.97549e-06
1.02573e-05
1.16441e-05
1.31323e-05
1.47238e-05
1.64196e-05
1.82154e-05
2.01058e-05
2.20889e-05
2.41654e-05
2.63341e-05
2.85906e-05
3.09306e-05
3.33525e-05
3.58568e-05
3.8442e-05
4.11044e-05
4.38407e-05
4.66505e-05
4.95347e-05
5.24932e-05
5.55231e-05
5.86212e-05
6.1785e-05
6.50135e-05
6.83052e-05
7.16561e-05
7.50607e-05
7.85142e-05
8.20156e-05
8.55664e-05
8.91669e-05
9.28133e-05
9.65006e-05
0.000100228
0.000103996
0.000107808
0.000111662
0.000115552
0.000119473
0.000123421
0.000127395
0.000131395
0.000135418
0.000139457
0.000143506
0.00014756
0.000151616
0.000155678
0.000159743
0.000163807
0.000167861
0.000171899
0.000175918
0.00017992
0.000183908
0.000187878
0.000191826
0.000195743
0.000199627
0.000203478
0.000207298
0.000211087
0.000214838
0.000218545
0.0002222
0.000225801
0.00022935
0.000232849
0.000236299
0.000239697
0.000243036
0.000246311
0.000249515
0.00025265
0.000255716
0.000258715
0.000261644
0.000264499
0.000267272
0.000269959
0.000272554
0.000275059
0.000277473
0.000279797
0.000282031
0.000284169
0.000286207
0.000288143
0.000289974
0.000291701
0.000293324
0.00029484
0.000296249
0.000297546
0.000298731
0.0002998
0.000300755
0.000301597
0.00030233
0.000302956
0.000303477
0.00030389
0.000304191
0.000304379
0.000304452
0.00030441
0.000304258
0.000303996
0.000303629
0.000303159
0.000302592
0.000301934
0.000301193
0.00030038
0.000299503
0.000298573
0.0002976
0.000296596
0.000295575
0.000294555
0.000293553
0.000292586
0.000291669
0.000290822
0.000290061
0.000289362
0.000288705
1.5014e-05
1.42733e-05
1.3651e-05
1.30498e-05
1.23984e-05
1.169e-05
1.09453e-05
1.01822e-05
9.4049e-06
8.61655e-06
7.84519e-06
7.12056e-06
6.44191e-06
5.79737e-06
5.19672e-06
4.66323e-06
4.21419e-06
3.85342e-06
3.57727e-06
3.38605e-06
3.28629e-06
3.2868e-06
3.39445e-06
3.60867e-06
3.92443e-06
4.34065e-06
4.86035e-06
5.4863e-06
6.21972e-06
7.0606e-06
8.00817e-06
9.06178e-06
1.02208e-05
1.14847e-05
1.28535e-05
1.43264e-05
1.59014e-05
1.75758e-05
1.93464e-05
2.12117e-05
2.31718e-05
2.52253e-05
2.73682e-05
2.95968e-05
3.191e-05
3.43082e-05
3.67898e-05
3.93503e-05
4.19853e-05
4.46943e-05
4.748e-05
5.03434e-05
5.32805e-05
5.62856e-05
5.93557e-05
6.24917e-05
6.5694e-05
6.89588e-05
7.22795e-05
7.56509e-05
7.90722e-05
8.25445e-05
8.60683e-05
8.9641e-05
9.32574e-05
9.69138e-05
0.000100611
0.000104352
0.000108137
0.000111961
0.000115818
0.000119702
0.000123613
0.000127553
0.000131517
0.000135502
0.000139499
0.000143504
0.000147516
0.000151535
0.000155561
0.000159591
0.000163619
0.000167638
0.000171644
0.000175634
0.00017961
0.000183569
0.000187508
0.00019142
0.0001953
0.000199147
0.000202961
0.000206744
0.000210494
0.000214205
0.00021787
0.000221484
0.000225047
0.000228561
0.00023203
0.000235451
0.000238821
0.000242133
0.00024538
0.000248559
0.000251668
0.000254708
0.000257681
0.000260584
0.00026341
0.000266154
0.00026881
0.000271376
0.000273851
0.000276238
0.000278537
0.000280745
0.000282859
0.000284872
0.000286784
0.000288594
0.000290303
0.00029191
0.000293415
0.000294815
0.000296105
0.000297281
0.000298343
0.000299293
0.000300135
0.00030087
0.0003015
0.000302025
0.000302441
0.000302747
0.000302938
0.000303016
0.000302982
0.000302841
0.000302596
0.00030225
0.000301806
0.000301267
0.000300639
0.00029993
0.000299149
0.000298303
0.000297402
0.000296456
0.000295477
0.000294477
0.000293468
0.000292465
0.00029148
0.000290524
0.000289611
0.000288756
0.000287914
0.000287047
1.70131e-05
1.60598e-05
1.5258e-05
1.44956e-05
1.37092e-05
1.28999e-05
1.20743e-05
1.12546e-05
1.04579e-05
9.67036e-06
8.88985e-06
8.14796e-06
7.46775e-06
6.84457e-06
6.26956e-06
5.74987e-06
5.30257e-06
4.94191e-06
4.67441e-06
4.49928e-06
4.4151e-06
4.42634e-06
4.53872e-06
4.75312e-06
5.06907e-06
5.48855e-06
6.01259e-06
6.63963e-06
7.3691e-06
8.20416e-06
9.14781e-06
1.01974e-05
1.13476e-05
1.25972e-05
1.39496e-05
1.54065e-05
1.69642e-05
1.86179e-05
2.03654e-05
2.22077e-05
2.41457e-05
2.61763e-05
2.8294e-05
3.04965e-05
3.2785e-05
3.51606e-05
3.76202e-05
4.01579e-05
4.27701e-05
4.54573e-05
4.82222e-05
5.10647e-05
5.39797e-05
5.69613e-05
6.00074e-05
6.31191e-05
6.62965e-05
6.95344e-05
7.28257e-05
7.6167e-05
7.95599e-05
8.30066e-05
8.65059e-05
9.00529e-05
9.36424e-05
9.7272e-05
0.000100944
0.000104659
0.000108418
0.000112213
0.000116037
0.000119888
0.000123764
0.000127669
0.000131599
0.000135546
0.000139504
0.000143469
0.000147442
0.000151428
0.000155424
0.000159426
0.000163424
0.000167414
0.000171392
0.000175358
0.000179312
0.000183248
0.000187159
0.000191038
0.000194882
0.000198692
0.000202471
0.000206218
0.00020993
0.000213601
0.000217226
0.000220801
0.000224328
0.000227812
0.000231254
0.000234651
0.000237997
0.000241284
0.000244506
0.00024766
0.000250747
0.000253765
0.000256715
0.000259592
0.00026239
0.000265104
0.000267729
0.000270265
0.000272713
0.000275074
0.000277347
0.00027953
0.000281618
0.000283608
0.000285498
0.000287289
0.000288981
0.000290575
0.00029207
0.000293463
0.000294747
0.000295918
0.000296975
0.00029792
0.000298759
0.000299494
0.000300127
0.000300654
0.000301074
0.000301381
0.000301574
0.000301654
0.000301625
0.000301492
0.00030126
0.000300933
0.000300511
0.000299996
0.000299393
0.000298708
0.000297948
0.000297122
0.00029624
0.000295311
0.000294345
0.000293354
0.000292345
0.000291327
0.00029031
0.000289301
0.000288312
0.000287356
0.000286372
0.000285301
1.89238e-05
1.77631e-05
1.67901e-05
1.58876e-05
1.49872e-05
1.40919e-05
1.31962e-05
1.23093e-05
1.14655e-05
1.06653e-05
9.88605e-06
9.13353e-06
8.43582e-06
7.8055e-06
7.2392e-06
6.73585e-06
6.30028e-06
5.94324e-06
5.67518e-06
5.50101e-06
5.42371e-06
5.44441e-06
5.56171e-06
5.77647e-06
6.09275e-06
6.51364e-06
7.03893e-06
7.66625e-06
8.39477e-06
9.22728e-06
1.01661e-05
1.12086e-05
1.23505e-05
1.35907e-05
1.49311e-05
1.63725e-05
1.79115e-05
1.95447e-05
2.12718e-05
2.30941e-05
2.50108e-05
2.70181e-05
2.91123e-05
3.12927e-05
3.35608e-05
3.59157e-05
3.8353e-05
4.08684e-05
4.34606e-05
4.6131e-05
4.88791e-05
5.17015e-05
5.45935e-05
5.75519e-05
6.05764e-05
6.36668e-05
6.68204e-05
7.00315e-05
7.32948e-05
7.66094e-05
7.99779e-05
8.34018e-05
8.6878e-05
9.04004e-05
9.39649e-05
9.75714e-05
0.000101222
0.000104915
0.000108648
0.000112413
0.000116206
0.000120026
0.000123872
0.000127745
0.000131641
0.000135552
0.000139474
0.000143405
0.000147347
0.000151304
0.000155274
0.00015925
0.000163223
0.000167189
0.000171144
0.000175089
0.000179021
0.000182934
0.000186818
0.000190666
0.000194478
0.000198255
0.000202
0.000205714
0.000209392
0.000213027
0.000216616
0.000220157
0.000223655
0.000227111
0.000230529
0.000233904
0.000237227
0.000240491
0.000243689
0.00024682
0.000249884
0.000252881
0.000255808
0.000258661
0.000261432
0.000264117
0.000266712
0.000269219
0.000271641
0.000273979
0.00027623
0.00027839
0.000280456
0.000282423
0.000284293
0.000286065
0.000287744
0.000289327
0.000290814
0.000292199
0.000293476
0.00029464
0.000295691
0.000296631
0.000297467
0.0002982
0.000298833
0.000299361
0.000299781
0.000300089
0.000300283
0.000300364
0.00030034
0.000300215
0.000299995
0.000299682
0.000299278
0.000298783
0.000298198
0.00029753
0.000296784
0.00029597
0.000295097
0.000294176
0.000293215
0.000292221
0.0002912
0.000290157
0.000289097
0.000288026
0.000286957
0.000285899
0.000284776
0.00028351
2.07681e-05
1.93976e-05
1.82624e-05
1.72314e-05
1.62106e-05
1.52272e-05
1.42789e-05
1.33402e-05
1.24358e-05
1.15961e-05
1.08085e-05
1.00563e-05
9.34799e-06
8.70116e-06
8.12501e-06
7.62181e-06
7.1939e-06
6.84422e-06
6.57768e-06
6.40274e-06
6.32614e-06
6.34772e-06
6.46527e-06
6.68087e-06
6.99848e-06
7.41925e-06
7.94209e-06
8.56736e-06
9.2965e-06
1.01292e-05
1.10632e-05
1.20965e-05
1.32292e-05
1.44619e-05
1.57933e-05
1.72206e-05
1.87412e-05
2.03557e-05
2.20656e-05
2.38703e-05
2.57664e-05
2.77513e-05
2.98245e-05
3.19871e-05
3.42385e-05
3.65751e-05
3.89918e-05
4.14868e-05
4.40614e-05
4.67163e-05
4.94486e-05
5.22522e-05
5.51226e-05
5.80597e-05
6.10644e-05
6.41348e-05
6.72654e-05
7.04506e-05
7.36882e-05
7.69797e-05
8.03273e-05
8.37302e-05
8.71837e-05
9.06823e-05
9.42238e-05
9.78097e-05
0.000101441
0.000105114
0.000108822
0.000112559
0.000116323
0.000120115
0.000123935
0.00012778
0.000131645
0.000135524
0.000139415
0.000143317
0.000147235
0.000151169
0.000155115
0.000159067
0.000163016
0.000166959
0.000170894
0.000174819
0.00017873
0.000182617
0.000186473
0.000190293
0.000194076
0.000197825
0.000201543
0.000205228
0.000208876
0.000212482
0.000216041
0.000219556
0.00022303
0.000226465
0.000229861
0.000233213
0.000236513
0.000239753
0.000242927
0.000246035
0.000249077
0.000252053
0.000254957
0.000257785
0.00026053
0.000263187
0.000265757
0.000268241
0.000270642
0.00027296
0.000275192
0.000277333
0.000279379
0.000281327
0.000283178
0.000284935
0.000286601
0.000288174
0.000289653
0.000291028
0.000292295
0.00029345
0.000294494
0.000295428
0.000296259
0.000296989
0.00029762
0.000298148
0.000298568
0.000298876
0.00029907
0.000299155
0.000299135
0.000299019
0.000298809
0.000298508
0.000298116
0.000297634
0.000297062
0.000296404
0.000295666
0.000294858
0.000293989
0.00029307
0.000292104
0.000291098
0.000290055
0.000288976
0.000287867
0.000286731
0.000285579
0.000284421
0.000283163
0.000281716
2.25036e-05
2.09416e-05
1.96613e-05
1.85177e-05
1.73855e-05
1.63008e-05
1.52912e-05
1.43173e-05
1.3367e-05
1.24751e-05
1.1656e-05
1.08937e-05
1.01803e-05
9.52447e-06
8.93645e-06
8.42357e-06
7.99125e-06
7.64142e-06
7.37689e-06
7.20354e-06
7.12522e-06
7.14263e-06
7.25716e-06
7.47227e-06
7.78972e-06
8.20792e-06
8.7263e-06
9.34838e-06
1.00766e-05
1.09076e-05
1.18364e-05
1.28619e-05
1.39867e-05
1.52115e-05
1.65328e-05
1.79463e-05
1.94512e-05
2.10505e-05
2.27457e-05
2.45341e-05
2.64115e-05
2.83771e-05
3.04332e-05
3.2581e-05
3.48172e-05
3.71368e-05
3.95361e-05
4.20151e-05
4.45749e-05
4.72147e-05
4.99298e-05
5.27145e-05
5.55661e-05
5.84855e-05
6.14727e-05
6.45237e-05
6.76319e-05
7.07931e-05
7.40083e-05
7.72801e-05
8.06092e-05
8.39919e-05
8.74231e-05
9.08991e-05
9.442e-05
9.79873e-05
0.0001016
0.000105252
0.000108937
0.000112649
0.000116388
0.000120157
0.000123954
0.000127776
0.000131615
0.000135466
0.00013933
0.000143211
0.000147109
0.000151023
0.000154948
0.000158875
0.0001628
0.00016672
0.000170634
0.000174539
0.000178426
0.000182288
0.000186117
0.00018991
0.000193668
0.000197396
0.000201093
0.000204757
0.000208382
0.000211965
0.000215502
0.000218997
0.000222452
0.00022587
0.000229247
0.000232577
0.000235852
0.000239066
0.000242216
0.000245301
0.000248321
0.000251275
0.000254158
0.000256963
0.000259683
0.000262317
0.000264866
0.000267333
0.000269718
0.000272021
0.000274238
0.000276363
0.000278392
0.000280324
0.00028216
0.000283903
0.000285557
0.00028712
0.000288587
0.000289952
0.000291208
0.000292353
0.000293386
0.000294313
0.000295138
0.000295865
0.000296493
0.000297019
0.000297439
0.000297747
0.000297944
0.000298032
0.000298018
0.000297909
0.000297708
0.000297416
0.000297032
0.000296556
0.00029599
0.000295337
0.000294603
0.000293797
0.000292927
0.000292002
0.000291025
0.000289998
0.000288924
0.000287804
0.000286641
0.000285439
0.000284206
0.000282951
0.000281565
0.000279947
2.41126e-05
2.2378e-05
2.09526e-05
1.97152e-05
1.85034e-05
1.73193e-05
1.6226e-05
1.52112e-05
1.42334e-05
1.33013e-05
1.24394e-05
1.16487e-05
1.09217e-05
1.02577e-05
9.66212e-06
9.14074e-06
8.69855e-06
8.3423e-06
8.07663e-06
7.90212e-06
7.81924e-06
7.83151e-06
7.94318e-06
8.15583e-06
8.46868e-06
8.88148e-06
9.3962e-06
1.00154e-05
1.07388e-05
1.15629e-05
1.24849e-05
1.3505e-05
1.46238e-05
1.58397e-05
1.71488e-05
1.8549e-05
2.00417e-05
2.16291e-05
2.33107e-05
2.50834e-05
2.69449e-05
2.88963e-05
3.09401e-05
3.30752e-05
3.52966e-05
3.75999e-05
3.99845e-05
4.24514e-05
4.49995e-05
4.76248e-05
5.0322e-05
5.30884e-05
5.59239e-05
5.88289e-05
6.18005e-05
6.4833e-05
6.79203e-05
7.10609e-05
7.42573e-05
7.75122e-05
8.08237e-05
8.41864e-05
8.75959e-05
9.10515e-05
9.45545e-05
9.81051e-05
0.000101699
0.000105331
0.000108993
0.000112684
0.000116403
0.000120153
0.000123931
0.000127732
0.000131549
0.000135379
0.000139224
0.000143087
0.000146968
0.000150864
0.000154767
0.000158671
0.000162571
0.000166468
0.000170359
0.000174241
0.000178105
0.000181942
0.000185746
0.000189516
0.000193256
0.000196967
0.00020065
0.000204299
0.000207909
0.000211475
0.000214997
0.000218477
0.000221919
0.000225321
0.00022868
0.000231988
0.000235238
0.000238426
0.000241551
0.000244614
0.000247613
0.000250548
0.00025341
0.000256194
0.000258894
0.00026151
0.000264044
0.000266497
0.000268871
0.000271163
0.000273367
0.000275479
0.000277494
0.000279412
0.000281235
0.000282967
0.000284608
0.000286159
0.000287614
0.000288967
0.000290212
0.000291346
0.00029237
0.000293289
0.000294108
0.000294829
0.000295454
0.000295978
0.000296396
0.000296705
0.000296904
0.000296997
0.000296989
0.000296885
0.000296689
0.000296401
0.000296021
0.000295547
0.000294982
0.00029433
0.000293596
0.000292789
0.000291913
0.000290976
0.00028998
0.000288927
0.000287818
0.000286654
0.000285437
0.000284168
0.000282855
0.000281506
0.000279998
0.000278222
2.55962e-05
2.37071e-05
2.21385e-05
2.08006e-05
1.9529e-05
1.82756e-05
1.70937e-05
1.60159e-05
1.50083e-05
1.40493e-05
1.31522e-05
1.23282e-05
1.15767e-05
1.08976e-05
1.02922e-05
9.76195e-06
9.31183e-06
8.94939e-06
8.67849e-06
8.49809e-06
8.40903e-06
8.41668e-06
8.52487e-06
8.73204e-06
9.03692e-06
9.44303e-06
9.95413e-06
1.05692e-05
1.12847e-05
1.20988e-05
1.30128e-05
1.40275e-05
1.51399e-05
1.63455e-05
1.76422e-05
1.90314e-05
2.0515e-05
2.20923e-05
2.37607e-05
2.5519e-05
2.73679e-05
2.93096e-05
3.1344e-05
3.34677e-05
3.56755e-05
3.7965e-05
4.03377e-05
4.27942e-05
4.53313e-05
4.79427e-05
5.06239e-05
5.33746e-05
5.61967e-05
5.9089e-05
6.20459e-05
6.50607e-05
6.81299e-05
7.12541e-05
7.44358e-05
7.76756e-05
8.09697e-05
8.43128e-05
8.77025e-05
9.11402e-05
9.46277e-05
9.8163e-05
0.00010174
0.000105351
0.000108993
0.000112666
0.00011637
0.000120106
0.000123868
0.000127651
0.00013145
0.000135263
0.000139094
0.000142944
0.00014681
0.000150688
0.000154569
0.000158449
0.000162326
0.0001662
0.000170069
0.000173927
0.000177767
0.000181581
0.000185364
0.000189118
0.000192845
0.000196546
0.000200219
0.000203857
0.000207456
0.000211011
0.000214522
0.000217992
0.000221422
0.00022481
0.000228151
0.000231437
0.000234663
0.000237827
0.00024093
0.000243972
0.000246954
0.00024987
0.000252714
0.000255481
0.000258165
0.000260767
0.00026329
0.000265734
0.000268099
0.00027038
0.000272573
0.000274673
0.000276675
0.000278581
0.000280392
0.000282112
0.000283742
0.000285281
0.000286723
0.000288064
0.000289298
0.000290423
0.00029144
0.000292353
0.000293165
0.000293882
0.000294501
0.000295021
0.000295437
0.000295746
0.000295947
0.000296044
0.00029604
0.000295939
0.000295744
0.000295456
0.000295075
0.000294601
0.000294034
0.00029338
0.000292642
0.000291828
0.000290942
0.000289987
0.000288967
0.000287884
0.000286739
0.000285532
0.000284262
0.000282926
0.000281535
0.000280094
0.000278472
0.000276552
2.69266e-05
2.4929e-05
2.32382e-05
2.17773e-05
2.04363e-05
1.91419e-05
1.78939e-05
1.67431e-05
1.56873e-05
1.46989e-05
1.37748e-05
1.29228e-05
1.21459e-05
1.14458e-05
1.08241e-05
1.02828e-05
9.82574e-06
9.45649e-06
9.17708e-06
8.98885e-06
8.89467e-06
8.89794e-06
8.9995e-06
9.19822e-06
9.49537e-06
9.89553e-06
1.04006e-05
1.10074e-05
1.1713e-05
1.25181e-05
1.34248e-05
1.44322e-05
1.55354e-05
1.67299e-05
1.80163e-05
1.93974e-05
2.08734e-05
2.24411e-05
2.40975e-05
2.58442e-05
2.76844e-05
2.96187e-05
3.16441e-05
3.37562e-05
3.59521e-05
3.82318e-05
4.05959e-05
4.30427e-05
4.55675e-05
4.81652e-05
5.08332e-05
5.35726e-05
5.63841e-05
5.92641e-05
6.2206e-05
6.52046e-05
6.8259e-05
7.1371e-05
7.45413e-05
7.77672e-05
8.10445e-05
8.43697e-05
8.77429e-05
9.11664e-05
9.46405e-05
9.81611e-05
0.000101721
0.000105315
0.00010894
0.000112599
0.000116292
0.000120015
0.000123764
0.000127532
0.000131316
0.000135118
0.000138939
0.000142778
0.00014663
0.00015049
0.000154349
0.000158207
0.000162063
0.000165917
0.000169766
0.000173604
0.000177422
0.000181216
0.000184984
0.000188726
0.000192445
0.000196139
0.000199804
0.000203434
0.000207023
0.000210568
0.000214072
0.000217534
0.000220955
0.000224329
0.000227652
0.000230917
0.000234122
0.000237265
0.00024035
0.000243376
0.000246343
0.000249244
0.000252073
0.000254825
0.000257496
0.000260088
0.000262602
0.000265037
0.000267392
0.000269663
0.000271844
0.000273931
0.000275922
0.000277816
0.000279617
0.000281326
0.000282946
0.000284474
0.000285906
0.000287236
0.000288462
0.00028958
0.000290591
0.000291498
0.000292306
0.000293017
0.000293632
0.000294146
0.000294557
0.000294863
0.000295064
0.000295163
0.000295161
0.000295061
0.000294865
0.000294574
0.00029419
0.000293712
0.000293142
0.000292482
0.000291736
0.000290909
0.000290007
0.000289033
0.000287988
0.000286874
0.000285693
0.000284443
0.000283119
0.000281718
0.000280249
0.000278723
0.000276997
0.000274947
2.80787e-05
2.60174e-05
2.42458e-05
2.26674e-05
2.12291e-05
1.98912e-05
1.86041e-05
1.73922e-05
1.62785e-05
1.52505e-05
1.42968e-05
1.34192e-05
1.26193e-05
1.18967e-05
1.12562e-05
1.07026e-05
1.0236e-05
9.85626e-06
9.56616e-06
9.37085e-06
9.27261e-06
9.2697e-06
9.36148e-06
9.55135e-06
9.84317e-06
1.02379e-05
1.07336e-05
1.13287e-05
1.20243e-05
1.28225e-05
1.37224e-05
1.47203e-05
1.58123e-05
1.69973e-05
1.82767e-05
1.96515e-05
2.11195e-05
2.26772e-05
2.43238e-05
2.60628e-05
2.7897e-05
2.98244e-05
3.18399e-05
3.39404e-05
3.61265e-05
3.83995e-05
4.07573e-05
4.31947e-05
4.57067e-05
4.82913e-05
5.0949e-05
5.36803e-05
5.64829e-05
5.93509e-05
6.22784e-05
6.52629e-05
6.83059e-05
7.14089e-05