/*--------------------------------*- C++ -*----------------------------------*\
  =========                 |
  \\      /  F ield         | OpenFOAM: The Open Source CFD Toolbox
   \\    /   O peration     | Website:  https://openfoam.org
    \\  /    A nd           | Version:  7
     \\/     M anipulation  |
\*---------------------------------------------------------------------------*/
FoamFile
{
    version     2.0;
    format      ascii;
    class       surfaceScalarField;
    location    "0.0375";
    object      phi;
}
// * * * * * * * * * * * * * * * * * * * * * * * * * * * * * * * * * * * * * //

dimensions      [0 3 -1 0 0 0 0];

internalField   nonuniform List<scalar> 
101920
(
3.47831e-13
-3.32889e-13
7.46252e-13
-3.99336e-13
1.35795e-12
-6.12834e-13
1.9825e-12
-6.25311e-13
2.34794e-12
-3.66518e-13
2.25786e-12
8.89533e-14
1.63596e-12
6.22084e-13
5.25298e-13
1.11048e-12
-1.04347e-12
1.56851e-12
-3.03036e-12
1.98733e-12
-5.39898e-12
2.36916e-12
-8.11484e-12
2.71632e-12
-1.11392e-11
3.02447e-12
-1.44302e-11
3.29052e-12
-1.79418e-11
3.51082e-12
-2.16368e-11
3.69434e-12
-2.54927e-11
3.85561e-12
-2.94885e-11
3.99584e-12
-3.35962e-11
4.10781e-12
-3.77851e-11
4.18881e-12
-4.20301e-11
4.24493e-12
-4.632e-11
4.29022e-12
-5.06533e-11
4.33388e-12
-5.50217e-11
4.36937e-12
-5.94062e-11
4.38539e-12
-6.3788e-11
4.38241e-12
-6.81567e-11
4.3689e-12
-7.25072e-11
4.35023e-12
-7.68352e-11
4.32745e-12
-8.11366e-11
4.30084e-12
-8.5407e-11
4.26987e-12
-8.96395e-11
4.23208e-12
-9.38265e-11
4.18652e-12
-9.79623e-11
4.13536e-12
-1.02044e-10
4.08092e-12
-1.06067e-10
4.02301e-12
-1.10027e-10
3.96003e-12
-1.1392e-10
3.8917e-12
-1.17741e-10
3.82076e-12
-1.21492e-10
3.75016e-12
-1.25171e-10
3.67857e-12
-1.28774e-10
3.60357e-12
-1.32299e-10
3.52626e-12
-1.35747e-10
3.44893e-12
-1.39117e-10
3.3719e-12
-1.42411e-10
3.29483e-12
-1.45629e-10
3.21773e-12
-1.48769e-10
3.14052e-12
-1.51833e-10
3.06298e-12
-1.54819e-10
2.98488e-12
-1.57726e-10
2.90584e-12
-1.60552e-10
2.82567e-12
-1.63296e-10
2.74441e-12
-1.65958e-10
2.66155e-12
-1.68534e-10
2.57618e-12
-1.71023e-10
2.48867e-12
-1.73423e-10
2.40035e-12
-1.75734e-10
2.31114e-12
-1.77953e-10
2.21953e-12
-1.80078e-10
2.12537e-12
-1.82108e-10
2.03012e-12
-1.84042e-10
1.93475e-12
-1.85882e-10
1.83951e-12
-1.87626e-10
1.74465e-12
-1.89276e-10
1.65011e-12
-1.90831e-10
1.55523e-12
-1.92289e-10
1.45941e-12
-1.93652e-10
1.36273e-12
-1.94918e-10
1.26589e-12
-1.96088e-10
1.16907e-12
-1.9716e-10
1.07138e-12
-1.98132e-10
9.71795e-13
-1.99002e-10
8.6986e-13
-1.99767e-10
7.65315e-13
-2.00425e-10
6.58135e-13
-2.00974e-10
5.48797e-13
-2.01412e-10
4.37982e-13
-2.01738e-10
3.26287e-13
-2.01953e-10
2.13966e-13
-2.02054e-10
1.00755e-13
-2.0204e-10
-1.35653e-14
-2.01911e-10
-1.28411e-13
-2.01668e-10
-2.42767e-13
-2.01313e-10
-3.55761e-13
-2.00846e-10
-4.67327e-13
-2.00269e-10
-5.78156e-13
-1.99581e-10
-6.88571e-13
-1.98784e-10
-7.97956e-13
-1.97878e-10
-9.05753e-13
-1.96865e-10
-1.01236e-12
-1.95745e-10
-1.11872e-12
-1.94518e-10
-1.22543e-12
-1.93185e-10
-1.33216e-12
-1.91748e-10
-1.43776e-12
-1.90207e-10
-1.54118e-12
-1.88566e-10
-1.6421e-12
-1.86827e-10
-1.74091e-12
-1.8499e-10
-1.83827e-12
-1.83056e-10
-1.93446e-12
-1.81027e-10
-2.0291e-12
-1.78904e-10
-2.12185e-12
-1.7669e-10
-2.21313e-12
-1.74385e-10
-2.30389e-12
-1.71989e-10
-2.39484e-12
-1.69504e-10
-2.48608e-12
-1.66928e-10
-2.57732e-12
-1.64261e-10
-2.66825e-12
-1.61502e-10
-2.75856e-12
-1.58653e-10
-2.84785e-12
-1.55716e-10
-2.93598e-12
-1.52692e-10
-3.02319e-12
-1.49583e-10
-3.10947e-12
-1.4639e-10
-3.194e-12
-1.43115e-10
-3.2754e-12
-1.39763e-10
-3.35277e-12
-1.36336e-10
-3.42639e-12
-1.32838e-10
-3.49748e-12
-1.29271e-10
-3.5673e-12
-1.25634e-10
-3.63664e-12
-1.21929e-10
-3.70559e-12
-1.18156e-10
-3.77351e-12
-1.14316e-10
-3.8394e-12
-1.10413e-10
-3.90256e-12
-1.06449e-10
-3.96306e-12
-1.02428e-10
-4.02136e-12
-9.83502e-11
-4.07748e-12
-9.42199e-11
-4.13082e-12
-9.004e-11
-4.18034e-12
-8.58156e-11
-4.22463e-12
-8.15531e-11
-4.26225e-12
-7.72602e-11
-4.2925e-12
-7.29442e-11
-4.31567e-12
-6.86117e-11
-4.33236e-12
-6.42696e-11
-4.34234e-12
-5.99255e-11
-4.34443e-12
-5.55882e-11
-4.33743e-12
-5.12675e-11
-4.32051e-12
-4.69743e-11
-4.29257e-12
-4.27218e-11
-4.25173e-12
-3.85258e-11
-4.19554e-12
-3.4404e-11
-4.12182e-12
-3.03754e-11
-4.02906e-12
-2.64597e-11
-3.91605e-12
-2.2678e-11
-3.78137e-12
-1.90535e-11
-3.62335e-12
-1.56123e-11
-3.4401e-12
-1.23829e-11
-3.22911e-12
-9.39633e-12
-2.98729e-12
-6.6855e-12
-2.7118e-12
-4.2848e-12
-2.40103e-12
-2.22853e-12
-2.05583e-12
-5.4807e-13
-1.67985e-12
7.30741e-13
-1.27853e-12
1.58959e-12
-8.58861e-13
2.02108e-12
-4.31634e-13
2.03607e-12
-1.51067e-14
1.67719e-12
3.58899e-13
1.04607e-12
6.31237e-13
3.5711e-13
6.89105e-13
3.57293e-13
8.97714e-13
-1.23158e-12
1.89926e-12
-1.39842e-12
2.7811e-12
-1.4952e-12
3.3502e-12
-1.19321e-12
3.16877e-12
-1.84283e-13
1.8942e-12
1.36415e-12
-5.88663e-13
3.10607e-12
-4.31204e-12
4.8346e-12
-9.21373e-12
6.47031e-12
-1.52148e-11
7.98753e-12
-2.22199e-11
9.37323e-12
-3.01268e-11
1.06219e-11
-3.88392e-11
1.17359e-11
-4.82641e-11
1.27147e-11
-5.83147e-11
1.35605e-11
-6.8906e-11
1.42845e-11
-7.99532e-11
1.49015e-11
-9.13817e-11
1.54236e-11
-1.03129e-10
1.58549e-11
-1.15138e-10
1.61982e-11
-1.27357e-10
1.64636e-11
-1.39735e-10
1.66682e-11
-1.52228e-10
1.6825e-11
-1.64794e-10
1.69342e-11
-1.77401e-10
1.69915e-11
-1.9002e-10
1.69999e-11
-2.0262e-10
1.69687e-11
-2.15177e-10
1.6908e-11
-2.27672e-10
1.68226e-11
-2.40084e-10
1.67143e-11
-2.52398e-10
1.65843e-11
-2.64597e-10
1.64327e-11
-2.76669e-10
1.62593e-11
-2.88599e-10
1.60667e-11
-3.00374e-10
1.58578e-11
-3.11984e-10
1.56339e-11
-3.2342e-10
1.53966e-11
-3.34673e-10
1.51465e-11
-3.45737e-10
1.48854e-11
-3.56603e-10
1.46166e-11
-3.67266e-10
1.43407e-11
-3.77721e-10
1.40563e-11
-3.87962e-10
1.37655e-11
-3.97986e-10
1.34711e-11
-4.07789e-10
1.31738e-11
-4.17369e-10
1.2874e-11
-4.26723e-10
1.25721e-11
-4.3585e-10
1.22674e-11
-4.44745e-10
1.19592e-11
-4.53407e-10
1.16467e-11
-4.6183e-10
1.13291e-11
-4.70011e-10
1.10064e-11
-4.77947e-10
1.06798e-11
-4.85634e-10
1.03484e-11
-4.93068e-10
1.00107e-11
-5.00244e-10
9.66651e-12
-5.07159e-10
9.31679e-12
-5.13809e-10
8.96188e-12
-5.20191e-10
8.60125e-12
-5.26301e-10
8.23513e-12
-5.32135e-10
7.86494e-12
-5.37693e-10
7.4921e-12
-5.42971e-10
7.11757e-12
-5.47969e-10
6.74188e-12
-5.52686e-10
6.36492e-12
-5.57118e-10
5.98606e-12
-5.61265e-10
5.6049e-12
-5.65123e-10
5.22132e-12
-5.68691e-10
4.83552e-12
-5.71968e-10
4.44741e-12
-5.74951e-10
4.05596e-12
-5.77638e-10
3.65966e-12
-5.80026e-10
3.25742e-12
-5.8211e-10
2.84884e-12
-5.83887e-10
2.43464e-12
-5.85354e-10
2.01621e-12
-5.86511e-10
1.5945e-12
-5.87356e-10
1.16987e-12
-5.87886e-10
7.42805e-13
-5.881e-10
3.13793e-13
-5.87999e-10
-1.16648e-13
-5.87582e-10
-5.47371e-13
-5.86849e-10
-9.76743e-13
-5.85801e-10
-1.40359e-12
-5.84439e-10
-1.82787e-12
-5.82765e-10
-2.25039e-12
-5.8078e-10
-2.67155e-12
-5.78487e-10
-3.09061e-12
-5.75887e-10
-3.50676e-12
-5.72981e-10
-3.91994e-12
-5.69771e-10
-4.33062e-12
-5.66258e-10
-4.73906e-12
-5.62446e-10
-5.14502e-12
-5.58336e-10
-5.54748e-12
-5.53932e-10
-5.94514e-12
-5.49237e-10
-6.33723e-12
-5.44254e-10
-6.72394e-12
-5.38985e-10
-7.10615e-12
-5.33436e-10
-7.4844e-12
-5.27608e-10
-7.85805e-12
-5.21506e-10
-8.2261e-12
-5.15132e-10
-8.58852e-12
-5.08489e-10
-8.9466e-12
-5.01581e-10
-9.30206e-12
-4.94408e-10
-9.65604e-12
-4.86975e-10
-1.00087e-11
-4.79284e-10
-1.03592e-11
-4.71337e-10
-1.07066e-11
-4.63138e-10
-1.10495e-11
-4.54688e-10
-1.13869e-11
-4.45993e-10
-1.17188e-11
-4.37056e-10
-1.20452e-11
-4.27884e-10
-1.23653e-11
-4.18481e-10
-1.26776e-11
-4.08854e-10
-1.29807e-11
-3.99006e-10
-1.32743e-11
-3.88945e-10
-1.35597e-11
-3.78674e-10
-1.38384e-11
-3.682e-10
-1.41114e-11
-3.57526e-10
-1.43789e-11
-3.4666e-10
-1.46402e-11
-3.35605e-10
-1.48937e-11
-3.24369e-10
-1.51382e-11
-3.12959e-10
-1.5373e-11
-3.01383e-10
-1.55975e-11
-2.8965e-10
-1.5811e-11
-2.77769e-10
-1.60117e-11
-2.65753e-10
-1.61973e-11
-2.53613e-10
-1.63647e-11
-2.41363e-10
-1.65111e-11
-2.29021e-10
-1.66338e-11
-2.16605e-10
-1.67311e-11
-2.04136e-10
-1.68019e-11
-1.91634e-10
-1.68441e-11
-1.79124e-10
-1.68546e-11
-1.66632e-10
-1.68291e-11
-1.54189e-10
-1.67634e-11
-1.41829e-10
-1.6652e-11
-1.29592e-10
-1.64889e-11
-1.1752e-10
-1.62672e-11
-1.0566e-10
-1.59804e-11
-9.40662e-11
-1.56224e-11
-8.27946e-11
-1.51873e-11
-7.19077e-11
-1.46688e-11
-6.14716e-11
-1.40601e-11
-5.15575e-11
-1.33544e-11
-4.2241e-11
-1.25451e-11
-3.36019e-11
-1.16258e-11
-2.5722e-11
-1.05914e-11
-1.8683e-11
-9.44014e-12
-1.25629e-11
-8.17591e-12
-7.43216e-12
-6.81034e-12
-3.34761e-12
-5.36291e-12
-3.4432e-13
-3.86206e-12
1.57554e-12
-2.35118e-12
2.45898e-12
-8.97953e-13
2.4274e-12
3.91106e-13
1.71109e-12
1.34795e-12
6.94427e-13
1.70586e-12
1.05174e-12
5.77956e-13
-1.81067e-12
1.09197e-12
-1.91402e-12
1.1943e-12
-1.59933e-12
6.1912e-13
-6.18277e-13
-1.09597e-12
1.53006e-12
-4.28841e-12
4.55558e-12
-9.14989e-12
7.96764e-12
-1.57418e-11
1.14272e-11
-2.40313e-11
1.47605e-11
-3.39296e-11
1.78865e-11
-4.53253e-11
2.0769e-11
-5.80909e-11
2.33867e-11
-7.2089e-11
2.57333e-11
-8.71884e-11
2.78132e-11
-1.03265e-10
2.96365e-11
-1.20197e-10
3.12169e-11
-1.3787e-10
3.25735e-11
-1.56168e-10
3.37214e-11
-1.74987e-10
3.46734e-11
-1.94235e-10
3.54462e-11
-2.13829e-10
3.60592e-11
-2.33694e-10
3.65338e-11
-2.53755e-10
3.68868e-11
-2.73946e-10
3.71263e-11
-2.94214e-10
3.72585e-11
-3.14507e-10
3.72928e-11
-3.34781e-10
3.72422e-11
-3.54995e-10
3.71211e-11
-3.75113e-10
3.69393e-11
-3.95102e-10
3.67022e-11
-4.14932e-10
3.64142e-11
-4.3458e-10
3.60795e-11
-4.54023e-10
3.57018e-11
-4.73242e-10
3.52858e-11
-4.9222e-10
3.48347e-11
-5.10938e-10
3.43517e-11
-5.29383e-10
3.38406e-11
-5.47542e-10
3.33047e-11
-5.65403e-10
3.27463e-11
-5.82954e-10
3.21686e-11
-6.00184e-10
3.15731e-11
-6.17087e-10
3.09605e-11
-6.33653e-10
3.03331e-11
-6.49875e-10
2.96936e-11
-6.65744e-10
2.90432e-11
-6.81253e-10
2.83832e-11
-6.96396e-10
2.77142e-11
-7.11166e-10
2.70365e-11
-7.25557e-10
2.63497e-11
-7.39564e-10
2.5653e-11
-7.5318e-10
2.49452e-11
-7.664e-10
2.42261e-11
-7.79216e-10
2.34962e-11
-7.91624e-10
2.27555e-11
-8.03617e-10
2.20034e-11
-8.1519e-10
2.12398e-11
-8.26338e-10
2.04651e-11
-8.37054e-10
1.96794e-11
-8.47335e-10
1.8883e-11
-8.57177e-10
1.80764e-11
-8.66573e-10
1.72612e-11
-8.7552e-10
1.6439e-11
-8.84013e-10
1.56107e-11
-8.92047e-10
1.47771e-11
-8.9962e-10
1.39382e-11
-9.06727e-10
1.30936e-11
-9.13366e-10
1.22435e-11
-9.19534e-10
1.13879e-11
-9.25225e-10
1.05269e-11
-9.30438e-10
9.66008e-12
-9.35168e-10
8.78675e-12
-9.39414e-10
7.90574e-12
-9.43173e-10
7.01608e-12
-9.46441e-10
6.11748e-12
-9.49218e-10
5.21081e-12
-9.515e-10
4.29772e-12
-9.53285e-10
3.37956e-12
-9.54572e-10
2.45703e-12
-9.5536e-10
1.53078e-12
-9.55647e-10
6.01486e-13
-9.55434e-10
-3.29844e-13
-9.5472e-10
-1.26147e-12
-9.53507e-10
-2.19132e-12
-9.51794e-10
-3.11801e-12
-9.49582e-10
-4.04122e-12
-9.46872e-10
-4.96116e-12
-9.43665e-10
-5.87773e-12
-9.39965e-10
-6.79024e-12
-9.35772e-10
-7.69799e-12
-9.3109e-10
-8.60082e-12
-9.25922e-10
-9.49874e-12
-9.2027e-10
-1.03915e-11
-9.14138e-10
-1.12783e-11
-9.07528e-10
-1.2158e-11
-9.00445e-10
-1.30291e-11
-8.92893e-10
-1.38907e-11
-8.84875e-10
-1.47425e-11
-8.76396e-10
-1.55851e-11
-8.6746e-10
-1.64192e-11
-8.58071e-10
-1.72447e-11
-8.48236e-10
-1.80608e-11
-8.37957e-10
-1.8867e-11
-8.27242e-10
-1.96637e-11
-8.16093e-10
-2.04518e-11
-8.04518e-10
-2.12323e-11
-7.9252e-10
-2.20059e-11
-7.80106e-10
-2.27721e-11
-7.67281e-10
-2.35299e-11
-7.54052e-10
-2.42779e-11
-7.40425e-10
-2.50145e-11
-7.26406e-10
-2.57389e-11
-7.12001e-10
-2.64505e-11
-6.97219e-10
-2.71484e-11
-6.82065e-10
-2.78313e-11
-6.66547e-10
-2.84982e-11
-6.50673e-10
-2.91485e-11
-6.3445e-10
-2.97826e-11
-6.17888e-10
-3.04013e-11
-6.00994e-10
-3.1005e-11
-5.83779e-10
-3.15937e-11
-5.66253e-10
-3.21662e-11
-5.48425e-10
-3.27208e-11
-5.30307e-10
-3.32557e-11
-5.11911e-10
-3.3769e-11
-4.9325e-10
-3.42588e-11
-4.74338e-10
-3.47226e-11
-4.55193e-10
-3.51572e-11
-4.35831e-10
-3.55583e-11
-4.16274e-10
-3.59214e-11
-3.96543e-10
-3.62415e-11
-3.76664e-10
-3.65136e-11
-3.56662e-10
-3.67327e-11
-3.36571e-10
-3.68932e-11
-3.16426e-10
-3.69891e-11
-2.96267e-10
-3.7013e-11
-2.76139e-10
-3.69564e-11
-2.56092e-10
-3.68098e-11
-2.36181e-10
-3.6562e-11
-2.1647e-10
-3.62007e-11
-1.97025e-10
-3.57121e-11
-1.77923e-10
-3.50828e-11
-1.59244e-10
-3.42998e-11
-1.4108e-10
-3.33503e-11
-1.23527e-10
-3.2221e-11
-1.06688e-10
-3.08983e-11
-9.06752e-11
-2.93687e-11
-7.56006e-11
-2.76206e-11
-6.15817e-11
-2.56448e-11
-4.87363e-11
-2.34361e-11
-3.718e-11
-2.0996e-11
-2.70207e-11
-1.83352e-11
-1.83541e-11
-1.54773e-11
-1.1255e-11
-1.24623e-11
-5.76607e-12
-9.35123e-12
-1.88257e-12
-6.23481e-12
4.67841e-13
-3.24828e-12
1.45085e-12
-5.91697e-13
1.35648e-12
1.44249e-12
6.37939e-13
2.42451e-12
1.68975e-12
1.12818e-13
-1.9237e-12
-4.38375e-13
-1.36214e-12
-1.85794e-12
-1.8074e-13
-4.33731e-12
1.86134e-12
-8.23484e-12
5.42822e-12
-1.3875e-11
1.01955e-11
-2.14881e-11
1.55805e-11
-3.11784e-11
2.11175e-11
-4.29428e-11
2.65247e-11
-5.67049e-11
3.16488e-11
-7.23468e-11
3.64109e-11
-8.97302e-11
4.07701e-11
-1.08706e-10
4.47085e-11
-1.29118e-10
4.82242e-11
-1.5081e-10
5.13274e-11
-1.7363e-10
5.40364e-11
-1.97429e-10
5.63725e-11
-2.2207e-10
5.83614e-11
-2.47424e-10
6.00275e-11
-2.73372e-10
6.13927e-11
-2.99796e-10
6.2483e-11
-3.2659e-10
6.33267e-11
-3.53653e-10
6.39498e-11
-3.80902e-10
6.43754e-11
-4.08266e-10
6.46222e-11
-4.35678e-10
6.4705e-11
-4.63076e-10
6.46407e-11
-4.90403e-10
6.44481e-11
-5.17607e-10
6.41434e-11
-5.44644e-10
6.37392e-11
-5.71474e-10
6.3245e-11
-5.98064e-10
6.26697e-11
-6.24384e-10
6.20214e-11
-6.50405e-10
6.13076e-11
-6.76104e-10
6.05342e-11
-7.01459e-10
5.97069e-11
-7.2645e-10
5.88321e-11
-7.51061e-10
5.79145e-11
-7.75273e-10
5.69576e-11
-7.9907e-10
5.59653e-11
-8.22439e-10
5.49412e-11
-8.45366e-10
5.38883e-11
-8.67842e-10
5.2809e-11
-8.89854e-10
5.17058e-11
-9.1139e-10
5.05804e-11
-9.32441e-10
4.94344e-11
-9.52995e-10
4.82692e-11
-9.73044e-10
4.70852e-11
-9.92577e-10
4.58824e-11
-1.01159e-09
4.46609e-11
-1.03006e-09
4.34205e-11
-1.048e-09
4.21615e-11
-1.06538e-09
4.08835e-11
-1.08221e-09
3.95862e-11
-1.09848e-09
3.82694e-11
-1.11417e-09
3.69335e-11
-1.12929e-09
3.55793e-11
-1.14382e-09
3.42077e-11
-1.15775e-09
3.28191e-11
-1.17109e-09
3.14139e-11
-1.18382e-09
2.99934e-11
-1.19594e-09
2.85596e-11
-1.20745e-09
2.71141e-11
-1.21833e-09
2.56577e-11
-1.22858e-09
2.41902e-11
-1.2382e-09
2.27113e-11
-1.24717e-09
2.12218e-11
-1.25551e-09
1.97225e-11
-1.2632e-09
1.82135e-11
-1.27023e-09
1.66944e-11
-1.27661e-09
1.51647e-11
-1.28233e-09
1.36236e-11
-1.28738e-09
1.20708e-11
-1.29177e-09
1.05071e-11
-1.29549e-09
8.93356e-12
-1.29855e-09
7.3514e-12
-1.30093e-09
5.76188e-12
-1.30264e-09
4.16621e-12
-1.30368e-09
2.56579e-12
-1.30404e-09
9.62022e-13
-1.30372e-09
-6.43799e-13
-1.30273e-09
-2.25008e-12
-1.30107e-09
-3.85492e-12
-1.29873e-09
-5.45663e-12
-1.29572e-09
-7.05403e-12
-1.29203e-09
-8.64626e-12
-1.28768e-09
-1.02327e-11
-1.28266e-09
-1.18127e-11
-1.27697e-09
-1.33856e-11
-1.27062e-09
-1.49506e-11
-1.26361e-09
-1.65072e-11
-1.25595e-09
-1.80543e-11
-1.24764e-09
-1.9591e-11
-1.23868e-09
-2.11164e-11
-1.22908e-09
-2.26292e-11
-1.21884e-09
-2.41284e-11
-1.20797e-09
-2.56129e-11
-1.19647e-09
-2.70824e-11
-1.18436e-09
-2.85367e-11
-1.17163e-09
-2.99759e-11
-1.15829e-09
-3.13997e-11
-1.14434e-09
-3.28079e-11
-1.12981e-09
-3.42007e-11
-1.11468e-09
-3.55779e-11
-1.09897e-09
-3.69397e-11
-1.0827e-09
-3.8286e-11
-1.06585e-09
-3.96163e-11
-1.04845e-09
-4.093e-11
-1.0305e-09
-4.22257e-11
-1.01201e-09
-4.3502e-11
-9.92995e-10
-4.47575e-11
-9.73455e-10
-4.59909e-11
-9.53403e-10
-4.72011e-11
-9.32848e-10
-4.83868e-11
-9.118e-10
-4.95467e-11
-8.90269e-10
-5.06802e-11
-8.68265e-10
-5.17867e-11
-8.458e-10
-5.2866e-11
-8.22887e-10
-5.39179e-11
-7.9954e-10
-5.49415e-11
-7.7577e-10
-5.59352e-11
-7.51594e-10
-5.68966e-11
-7.27026e-10
-5.78229e-11
-7.02084e-10
-5.87107e-11
-6.76787e-10
-5.95562e-11
-6.51154e-10
-6.03555e-11
-6.25207e-10
-6.11035e-11
-5.98971e-10
-6.17938e-11
-5.72473e-10
-6.2419e-11
-5.45743e-10
-6.2971e-11
-5.18815e-10
-6.34413e-11
-4.91728e-10
-6.38204e-11
-4.64523e-10
-6.40982e-11
-4.37248e-10
-6.42632e-11
-4.09959e-10
-6.43022e-11
-3.82715e-10
-6.42003e-11
-3.55584e-10
-6.39406e-11
-3.28641e-10
-6.35047e-11
-3.01969e-10
-6.28724e-11
-2.75658e-10
-6.20223e-11
-2.49809e-10
-6.09324e-11
-2.24528e-10
-5.95803e-11
-1.99934e-10
-5.79442e-11
-1.76152e-10
-5.60025e-11
-1.53316e-10
-5.37339e-11
-1.31566e-10
-5.11186e-11
-1.11047e-10
-4.81399e-11
-9.19057e-11
-4.47862e-11
-7.42882e-11
-4.10536e-11
-5.83351e-11
-3.6949e-11
-4.41766e-11
-3.24937e-11
-3.19259e-11
-2.77282e-11
-2.16692e-11
-2.27191e-11
-1.34538e-11
-1.75664e-11
-7.27249e-12
-1.24161e-11
-3.04349e-12
-7.4774e-12
-5.88242e-13
-3.04704e-12
3.94812e-13
4.59491e-13
3.63114e-13
2.45648e-12
2.05309e-12
-3.66481e-13
-1.55806e-12
-1.98114e-12
2.53734e-13
-5.00615e-12
2.84283e-12
-9.5988e-12
6.45391e-12
-1.60054e-11
1.18355e-11
-2.44557e-11
1.86463e-11
-3.51307e-11
2.62557e-11
-4.81384e-11
3.41254e-11
-6.34986e-11
4.18849e-11
-8.11531e-11
4.9303e-11
-1.00989e-10
5.6247e-11
-1.22866e-10
6.2647e-11
-1.46622e-10
6.84641e-11
-1.72085e-10
7.36868e-11
-1.99082e-10
7.83238e-11
-2.27437e-10
8.23914e-11
-2.56979e-10
8.59136e-11
-2.87541e-10
8.89239e-11
-3.18972e-10
9.1458e-11
-3.51129e-10
9.35501e-11
-3.83882e-10
9.52354e-11
-4.17102e-10
9.65467e-11
-4.50671e-10
9.7518e-11
-4.84481e-10
9.81845e-11
-5.18437e-10
9.85779e-11
-5.52457e-10
9.87252e-11
-5.86468e-10
9.86512e-11
-6.204e-10
9.83797e-11
-6.5419e-10
9.79331e-11
-6.87782e-10
9.73308e-11
-7.21127e-10
9.65892e-11
-7.54181e-10
9.57233e-11
-7.86906e-10
9.47461e-11
-8.19267e-10
9.36685e-11
-8.51234e-10
9.25005e-11
-8.82777e-10
9.12511e-11
-9.13874e-10
8.99289e-11
-9.445e-10
8.85414e-11
-9.74635e-10
8.70938e-11
-1.00426e-09
8.55906e-11
-1.03336e-09
8.40375e-11
-1.06191e-09
8.24391e-11
-1.0899e-09
8.07987e-11
-1.11731e-09
7.91192e-11
-1.14413e-09
7.74035e-11
-1.17035e-09
7.5654e-11
-1.19596e-09
7.38725e-11
-1.22093e-09
7.20596e-11
-1.24526e-09
7.02154e-11
-1.26894e-09
6.83407e-11
-1.29196e-09
6.64362e-11
-1.3143e-09
6.45027e-11
-1.33596e-09
6.25404e-11
-1.35692e-09
6.0549e-11
-1.37718e-09
5.85284e-11
-1.39672e-09
5.64794e-11
-1.41555e-09
5.44031e-11
-1.43364e-09
5.23006e-11
-1.45099e-09
5.01727e-11
-1.4676e-09
4.80204e-11
-1.48345e-09
4.5845e-11
-1.49854e-09
4.36484e-11
-1.51286e-09
4.14325e-11
-1.5264e-09
3.91984e-11
-1.53916e-09
3.69463e-11
-1.55112e-09
3.46765e-11
-1.56229e-09
3.23897e-11
-1.57265e-09
3.0087e-11
-1.58221e-09
2.77692e-11
-1.59095e-09
2.54364e-11
-1.59887e-09
2.30884e-11
-1.60598e-09
2.0725e-11
-1.61225e-09
1.83466e-11
-1.6177e-09
1.59546e-11
-1.62232e-09
1.35503e-11
-1.6261e-09
1.11349e-11
-1.62905e-09
8.70999e-12
-1.63116e-09
6.2771e-12
-1.63243e-09
3.83812e-12
-1.63286e-09
1.39509e-12
-1.63246e-09
-1.04993e-12
-1.63121e-09
-3.49506e-12
-1.62913e-09
-5.93858e-12
-1.62621e-09
-8.37877e-12
-1.62245e-09
-1.08138e-11
-1.61785e-09
-1.32418e-11
-1.61242e-09
-1.56614e-11
-1.60617e-09
-1.80716e-11
-1.59908e-09
-2.04717e-11
-1.59117e-09
-2.28606e-11
-1.58244e-09
-2.5237e-11
-1.5729e-09
-2.75992e-11
-1.56254e-09
-2.99457e-11
-1.55138e-09
-3.22751e-11
-1.53943e-09
-3.45863e-11
-1.52668e-09
-3.68784e-11
-1.51314e-09
-3.91506e-11
-1.49882e-09
-4.14016e-11
-1.48372e-09
-4.36304e-11
-1.46786e-09
-4.5836e-11
-1.45125e-09
-4.8018e-11
-1.43388e-09
-5.01763e-11
-1.41577e-09
-5.23109e-11
-1.39692e-09
-5.44214e-11
-1.37736e-09
-5.65073e-11
-1.35707e-09
-5.85679e-11
-1.33609e-09
-6.06023e-11
-1.31441e-09
-6.26091e-11
-1.29205e-09
-6.45872e-11
-1.26901e-09
-6.65353e-11
-1.24532e-09
-6.84518e-11
-1.22097e-09
-7.0335e-11
-1.19599e-09
-7.21833e-11
-1.17039e-09
-7.39949e-11
-1.14416e-09
-7.57683e-11
-1.11734e-09
-7.75022e-11
-1.08993e-09
-7.91956e-11
-1.06195e-09
-8.08473e-11
-1.03341e-09
-8.24561e-11
-1.00434e-09
-8.402e-11
-9.74734e-10
-8.55366e-11
-9.44628e-10
-8.70025e-11
-9.14037e-10
-8.84133e-11
-8.82983e-10
-8.97643e-11
-8.51489e-10
-9.10496e-11
-8.19581e-10
-9.22629e-11
-7.87287e-10
-9.33969e-11
-7.54638e-10
-9.44424e-11
-7.21668e-10
-9.53891e-11
-6.88415e-10
-9.62248e-11
-6.5492e-10
-9.69364e-11
-6.21231e-10
-9.7509e-11
-5.87402e-10
-9.79266e-11
-5.53493e-10
-9.81716e-11
-5.19571e-10
-9.82239e-11
-4.85711e-10
-9.8061e-11
-4.51995e-10
-9.76573e-11
-4.18514e-10
-9.69854e-11
-3.85369e-10
-9.60161e-11
-3.52671e-10
-9.47188e-11
-3.20541e-10
-9.30618e-11
-2.89109e-10
-9.10127e-11
-2.58514e-10
-8.85391e-11
-2.28907e-10
-8.56098e-11
-2.00445e-10
-8.21955e-11
-1.73293e-10
-7.82703e-11
-1.47619e-10
-7.38131e-11
-1.23595e-10
-6.88109e-11
-1.01387e-10
-6.3262e-11
-8.11556e-11
-5.71804e-11
-6.30489e-11
-5.06006e-11
-4.71933e-11
-4.35839e-11
-3.36853e-11
-3.62272e-11
-2.25786e-11
-2.86729e-11
-1.38706e-11
-2.11239e-11
-7.48539e-12
-1.38626e-11
-3.25527e-12
-7.27714e-12
-9.02098e-13
-1.89345e-12
-1.42516e-14
1.5691e-12
2.03911e-12
-8.14611e-13
-7.45146e-13
-3.41788e-12
2.85819e-12
-8.0136e-12
7.43766e-12
-1.47293e-11
1.31688e-11
-2.37097e-11
2.08159e-11
-3.50922e-11
3.00285e-11
-4.89833e-11
4.01469e-11
-6.54478e-11
5.05899e-11
-8.44928e-11
6.093e-11
-1.06062e-10
7.08723e-11
-1.3005e-10
8.0234e-11
-1.5631e-10
8.89065e-11
-1.84675e-10
9.68296e-11
-2.14965e-10
1.03977e-10
-2.46991e-10
1.1035e-10
-2.80566e-10
1.15965e-10
-3.15502e-10
1.20849e-10
-3.51616e-10
1.25037e-10
-3.88732e-10
1.28573e-10
-4.26685e-10
1.31503e-10
-4.65325e-10
1.33875e-10
-5.04512e-10
1.35733e-10
-5.44114e-10
1.37121e-10
-5.84011e-10
1.3808e-10
-6.24088e-10
1.38655e-10
-6.64247e-10
1.38884e-10
-7.04399e-10
1.38803e-10
-7.44465e-10
1.38445e-10
-7.84371e-10
1.37839e-10
-8.24052e-10
1.37011e-10
-8.63449e-10
1.35986e-10
-9.02511e-10
1.34785e-10
-9.41191e-10
1.33426e-10
-9.79448e-10
1.31925e-10
-1.01724e-09
1.30297e-10
-1.05455e-09
1.28554e-10
-1.09133e-09
1.26708e-10
-1.12755e-09
1.24768e-10
-1.1632e-09
1.22744e-10
-1.19825e-09
1.20641e-10
-1.23268e-09
1.18466e-10
-1.26647e-09
1.16226e-10
-1.29959e-09
1.13924e-10
-1.33204e-09
1.11565e-10
-1.36379e-09
1.09152e-10
-1.39482e-09
1.06689e-10
-1.42513e-09
1.04178e-10
-1.45469e-09
1.01622e-10
-1.48349e-09
9.90195e-11
-1.51152e-09
9.63728e-11
-1.53877e-09
9.36832e-11
-1.56522e-09
9.09513e-11
-1.59086e-09
8.8178e-11
-1.61567e-09
8.53637e-11
-1.63965e-09
8.25092e-11
-1.66279e-09
7.96157e-11
-1.68507e-09
7.66842e-11
-1.70649e-09
7.37158e-11
-1.72703e-09
7.07119e-11
-1.74668e-09
6.7674e-11
-1.76544e-09
6.4604e-11
-1.7833e-09
6.15038e-11
-1.80024e-09
5.83751e-11
-1.81626e-09
5.52192e-11
-1.83135e-09
5.20371e-11
-1.8455e-09
4.883e-11
-1.85871e-09
4.55988e-11
-1.87097e-09
4.23448e-11
-1.88227e-09
3.9069e-11
-1.8926e-09
3.57723e-11
-1.90197e-09
3.24552e-11
-1.91036e-09
2.91183e-11
-1.91778e-09
2.57628e-11
-1.92422e-09
2.23904e-11
-1.92967e-09
1.90027e-11
-1.93413e-09
1.5601e-11
-1.93761e-09
1.21875e-11
-1.9401e-09
8.76447e-12
-1.94159e-09
5.33394e-12
-1.9421e-09
1.89828e-12
-1.94161e-09
-1.53982e-12
-1.94013e-09
-4.97786e-12
-1.93765e-09
-8.41371e-12
-1.93419e-09
-1.18453e-11
-1.92973e-09
-1.52704e-11
-1.92429e-09
-1.86864e-11
-1.91786e-09
-2.20913e-11
-1.91044e-09
-2.54837e-11
-1.90205e-09
-2.88622e-11
-1.89269e-09
-3.22252e-11
-1.88236e-09
-3.5571e-11
-1.87106e-09
-3.88976e-11
-1.8588e-09
-4.22031e-11
-1.84559e-09
-4.54853e-11
-1.83143e-09
-4.87425e-11
-1.81634e-09
-5.19735e-11
-1.80031e-09
-5.51773e-11
-1.78336e-09
-5.83525e-11
-1.76549e-09
-6.14976e-11
-1.74672e-09
-6.4611e-11
-1.72704e-09
-6.76918e-11
-1.70648e-09
-7.0739e-11
-1.68504e-09
-7.37522e-11
-1.66273e-09
-7.67305e-11
-1.63956e-09
-7.96732e-11
-1.61555e-09
-8.25794e-11
-1.59071e-09
-8.54475e-11
-1.56504e-09
-8.82756e-11
-1.53857e-09
-9.10623e-11
-1.51129e-09
-9.38058e-11
-1.48324e-09
-9.65047e-11
-1.45442e-09
-9.91569e-11
-1.42484e-09
-1.0176e-10
-1.39453e-09
-1.04312e-10
-1.36348e-09
-1.06811e-10
-1.33173e-09
-1.09254e-10
-1.29929e-09
-1.11641e-10
-1.26617e-09
-1.13968e-10
-1.23239e-09
-1.16235e-10
-1.19797e-09
-1.18436e-10
-1.16294e-09
-1.2057e-10
-1.12731e-09
-1.2263e-10
-1.09111e-09
-1.24611e-10
-1.05437e-09
-1.26507e-10
-1.01711e-09
-1.28309e-10
-9.79361e-10
-1.30009e-10
-9.41162e-10
-1.31596e-10
-9.02548e-10
-1.33057e-10
-8.63559e-10
-1.34378e-10
-8.24241e-10
-1.35543e-10
-7.84643e-10
-1.36534e-10
-7.44822e-10
-1.3733e-10
-7.04841e-10
-1.37907e-10
-6.6477e-10
-1.38242e-10
-6.24689e-10
-1.38305e-10
-5.84685e-10
-1.38066e-10
-5.44853e-10
-1.37489e-10
-5.053e-10
-1.36539e-10
-4.66142e-10
-1.35174e-10
-4.27506e-10
-1.33354e-10
-3.8953e-10
-1.31037e-10
-3.52364e-10
-1.28179e-10
-3.16166e-10
-1.24737e-10
-2.81106e-10
-1.2067e-10
-2.4736e-10
-1.15941e-10
-2.15113e-10
-1.10516e-10
-1.84554e-10
-1.04372e-10
-1.55869e-10
-9.74948e-11
-1.29246e-10
-8.98856e-11
-1.04859e-10
-8.1567e-11
-8.28715e-11
-7.25884e-11
-6.34215e-11
-6.30337e-11
-4.66171e-11
-5.30314e-11
-3.25231e-11
-4.27668e-11
-2.11498e-11
-3.24972e-11
-1.24396e-11
-2.25727e-11
-6.25418e-12
-1.34622e-11
-2.36313e-12
-5.78403e-12
-4.33155e-13
-3.60435e-13
1.60607e-12
-1.19601e-12
4.50311e-13
-4.77092e-12
6.43372e-12
-1.09015e-11
1.35686e-11
-1.97058e-11
2.19726e-11
-3.12328e-11
3.23427e-11
-4.55335e-11
4.4329e-11
-6.26466e-11
5.72597e-11
-8.25817e-11
7.05249e-11
-1.05312e-10
8.36599e-11
-1.30766e-10
9.63272e-11
-1.5883e-10
1.08298e-10
-1.89354e-10
1.1943e-10
-2.22165e-10
1.2964e-10
-2.57073e-10
1.38885e-10
-2.93878e-10
1.47155e-10
-3.32381e-10
1.54467e-10
-3.72383e-10
1.60851e-10
-4.13691e-10
1.66345e-10
-4.56117e-10
1.70998e-10
-4.99479e-10
1.74864e-10
-5.43607e-10
1.78002e-10
-5.88345e-10
1.80471e-10
-6.3355e-10
1.82326e-10
-6.7909e-10
1.8362e-10
-7.2484e-10
1.84405e-10
-7.7069e-10
1.84733e-10
-8.16536e-10
1.8465e-10
-8.62289e-10
1.84198e-10
-9.07866e-10
1.83416e-10
-9.53192e-10
1.82338e-10
-9.98203e-10
1.80997e-10
-1.04284e-09
1.7942e-10
-1.08704e-09
1.77631e-10
-1.13077e-09
1.75653e-10
-1.17398e-09
1.73505e-10
-1.21663e-09
1.71204e-10
-1.25868e-09
1.68763e-10
-1.30011e-09
1.66197e-10
-1.34088e-09
1.63516e-10
-1.38097e-09
1.60729e-10
-1.42035e-09
1.57847e-10
-1.459e-09
1.54874e-10
-1.4969e-09
1.51818e-10
-1.53401e-09
1.48684e-10
-1.57034e-09
1.45476e-10
-1.60585e-09
1.42199e-10
-1.64053e-09
1.38856e-10
-1.67435e-09
1.35448e-10
-1.70731e-09
1.31979e-10
-1.73939e-09
1.2845e-10
-1.77057e-09
1.24862e-10
-1.80083e-09
1.21217e-10
-1.83017e-09
1.17516e-10
-1.85857e-09
1.13761e-10
-1.88601e-09
1.09951e-10
-1.91249e-09
1.06091e-10
-1.93798e-09
1.0218e-10
-1.96249e-09
9.822e-11
-1.98599e-09
9.42129e-11
-2.00848e-09
9.01606e-11
-2.02994e-09
8.60658e-11
-2.05036e-09
8.19307e-11
-2.06975e-09
7.77567e-11
-2.08807e-09
7.35453e-11
-2.10533e-09
6.92983e-11
-2.12152e-09
6.50178e-11
-2.13663e-09
6.07053e-11
-2.15064e-09
5.63624e-11
-2.16356e-09
5.19905e-11
-2.17538e-09
4.75908e-11
-2.18609e-09
4.31647e-11
-2.19569e-09
3.8714e-11
-2.20417e-09
3.42406e-11
-2.21152e-09
2.97464e-11
-2.21775e-09
2.5233e-11
-2.22286e-09
2.07026e-11
-2.22683e-09
1.6158e-11
-2.22966e-09
1.1602e-11
-2.23137e-09
7.0373e-12
-2.23194e-09
2.46668e-12
-2.23137e-09
-2.10698e-12
-2.22967e-09
-6.68076e-12
-2.22683e-09
-1.12519e-11
-2.22286e-09
-1.58173e-11
-2.21775e-09
-2.03742e-11
-2.21152e-09
-2.49198e-11
-2.20416e-09
-2.94516e-11
-2.19568e-09
-3.39675e-11
-2.18607e-09
-3.84654e-11
-2.17536e-09
-4.29427e-11
-2.16353e-09
-4.73973e-11
-2.1506e-09
-5.18268e-11
-2.13657e-09
-5.62289e-11
-2.12146e-09
-6.06012e-11
-2.10526e-09
-6.49415e-11
-2.08798e-09
-6.92478e-11
-2.06964e-09
-7.35182e-11
-2.05025e-09
-7.77509e-11
-2.0298e-09
-8.19439e-11
-2.00831e-09
-8.60956e-11
-1.9858e-09
-9.02046e-11
-1.96227e-09
-9.42692e-11
-1.93774e-09
-9.82882e-11
-1.91221e-09
-1.0226e-10
-1.8857e-09
-1.06184e-10
-1.85822e-09
-1.10057e-10
-1.82979e-09
-1.13879e-10
-1.80041e-09
-1.17647e-10
-1.77011e-09
-1.2136e-10
-1.73891e-09
-1.25014e-10
-1.7068e-09
-1.28608e-10
-1.67382e-09
-1.3214e-10
-1.63997e-09
-1.35607e-10
-1.60528e-09
-1.39005e-10
-1.56976e-09
-1.42333e-10
-1.53343e-09
-1.45587e-10
-1.4963e-09
-1.48765e-10
-1.45841e-09
-1.51864e-10
-1.41976e-09
-1.54881e-10
-1.38039e-09
-1.5781e-10
-1.34031e-09
-1.60647e-10
-1.29955e-09
-1.63385e-10
-1.25815e-09
-1.66016e-10
-1.21612e-09
-1.68531e-10
-1.17351e-09
-1.70921e-10
-1.13035e-09
-1.73173e-10
-1.08667e-09
-1.75273e-10
-1.04252e-09
-1.77205e-10
-9.97951e-10
-1.7895e-10
-9.53008e-10
-1.80487e-10
-9.07751e-10
-1.81791e-10
-8.62244e-10
-1.82836e-10
-8.16561e-10
-1.83591e-10
-7.70779e-10
-1.84023e-10
-7.24989e-10
-1.84096e-10
-6.79288e-10
-1.83767e-10
-6.33783e-10
-1.82993e-10
-5.88595e-10
-1.81726e-10
-5.43853e-10
-1.79915e-10
-4.99699e-10
-1.77508e-10
-4.56284e-10
-1.74451e-10
-4.13774e-10
-1.70689e-10
-3.72342e-10
-1.66168e-10
-3.32175e-10
-1.60837e-10
-2.93465e-10
-1.5465e-10
-2.56412e-10
-1.47569e-10
-2.2122e-10
-1.39564e-10
-1.88093e-10
-1.30622e-10
-1.57229e-10
-1.2075e-10
-1.28819e-10
-1.09977e-10
-1.03037e-10
-9.83695e-11
-8.00367e-11
-8.60338e-11
-5.99388e-11
-7.31291e-11
-4.28244e-11
-5.98812e-11
-2.87243e-11
-4.65972e-11
-1.76099e-11
-3.36868e-11
-9.38515e-12
-2.16864e-11
-3.88271e-12
-1.1286e-11
-8.63068e-13
-3.37993e-12
7.42883e-13
-1.53051e-12
1.98048e-12
-6.05226e-12
1.09552e-11
-1.3692e-11
2.12087e-11
-2.45292e-11
3.28098e-11
-3.85347e-11
4.63479e-11
-5.568e-11
6.14741e-11
-7.5941e-11
7.75203e-11
-9.92749e-11
9.38582e-11
-1.25613e-10
1.09998e-10
-1.54859e-10
1.25573e-10
-1.86882e-10
1.4032e-10
-2.21521e-10
1.54068e-10
-2.58595e-10
1.66714e-10
-2.97907e-10
1.78197e-10
-3.39249e-10
1.88497e-10
-3.82409e-10
1.97627e-10
-4.27177e-10
2.05619e-10
-4.7335e-10
2.12517e-10
-5.20729e-10
2.18377e-10
-5.69126e-10
2.23261e-10
-6.18359e-10
2.27235e-10
-6.68257e-10
2.30369e-10
-7.18664e-10
2.32732e-10
-7.69437e-10
2.34392e-10
-8.20442e-10
2.35411e-10
-8.71559e-10
2.3585e-10
-9.22675e-10
2.35767e-10
-9.73692e-10
2.35214e-10
-1.02452e-09
2.3424e-10
-1.07507e-09
2.3289e-10
-1.12527e-09
2.31202e-10
-1.17507e-09
2.29212e-10
-1.22438e-09
2.2695e-10
-1.27318e-09
2.24446e-10
-1.32139e-09
2.21723e-10
-1.36899e-09
2.18803e-10
-1.41593e-09
2.15705e-10
-1.46218e-09
2.12443e-10
-1.5077e-09
2.09033e-10
-1.55246e-09
2.05488e-10
-1.59643e-09
2.01817e-10
-1.63958e-09
1.9803e-10
-1.6819e-09
1.94134e-10
-1.72335e-09
1.90135e-10
-1.76391e-09
1.86042e-10
-1.80357e-09