/*--------------------------------*- C++ -*----------------------------------*\
  =========                 |
  \\      /  F ield         | OpenFOAM: The Open Source CFD Toolbox
   \\    /   O peration     | Website:  https://openfoam.org
    \\  /    A nd           | Version:  7
     \\/     M anipulation  |
\*---------------------------------------------------------------------------*/
FoamFile
{
    version     2.0;
    format      ascii;
    class       volVectorField;
    location    "0.0375";
    object      U;
}
// * * * * * * * * * * * * * * * * * * * * * * * * * * * * * * * * * * * * * //

dimensions      [0 1 -1 0 0 0 0];

internalField   nonuniform List<vector> 
51200
(
(5.78784e-08 7.79805e-09 0)
(8.31603e-08 1.28765e-08 0)
(1.76519e-07 -2.39222e-08 0)
(2.74153e-07 -4.46896e-08 0)
(3.61965e-07 -3.00533e-08 0)
(3.80579e-07 2.22635e-09 0)
(3.24425e-07 3.03288e-08 0)
(1.90222e-07 4.96427e-08 0)
(-2.39616e-08 6.48248e-08 0)
(-3.09527e-07 8.1454e-08 0)
(-6.59941e-07 1.00966e-07 0)
(-1.06981e-06 1.22106e-07 0)
(-1.53086e-06 1.4191e-07 0)
(-2.03699e-06 1.56473e-07 0)
(-2.58186e-06 1.65525e-07 0)
(-3.15854e-06 1.72893e-07 0)
(-3.76408e-06 1.80587e-07 0)
(-4.39486e-06 1.86322e-07 0)
(-5.04394e-06 1.8785e-07 0)
(-5.70699e-06 1.85791e-07 0)
(-6.3816e-06 1.83989e-07 0)
(-7.06527e-06 1.8694e-07 0)
(-7.75694e-06 1.94647e-07 0)
(-8.4547e-06 2.01997e-07 0)
(-9.155e-06 2.04463e-07 0)
(-9.85549e-06 2.02204e-07 0)
(-1.05552e-05 1.98545e-07 0)
(-1.12532e-05 1.95927e-07 0)
(-1.19482e-05 1.94579e-07 0)
(-1.26392e-05 1.94021e-07 0)
(-1.33251e-05 1.9359e-07 0)
(-1.40054e-05 1.92323e-07 0)
(-1.4679e-05 1.90144e-07 0)
(-1.5345e-05 1.87803e-07 0)
(-1.60027e-05 1.85628e-07 0)
(-1.66514e-05 1.83169e-07 0)
(-1.72902e-05 1.79891e-07 0)
(-1.79183e-05 1.75797e-07 0)
(-1.85354e-05 1.71829e-07 0)
(-1.91415e-05 1.6875e-07 0)
(-1.97361e-05 1.65946e-07 0)
(-2.03187e-05 1.62535e-07 0)
(-2.0889e-05 1.58643e-07 0)
(-2.14467e-05 1.54792e-07 0)
(-2.19921e-05 1.51109e-07 0)
(-2.25253e-05 1.47568e-07 0)
(-2.30462e-05 1.44209e-07 0)
(-2.35548e-05 1.41008e-07 0)
(-2.40512e-05 1.37945e-07 0)
(-2.45352e-05 1.34995e-07 0)
(-2.50066e-05 1.31937e-07 0)
(-2.54654e-05 1.28467e-07 0)
(-2.59112e-05 1.24536e-07 0)
(-2.63436e-05 1.20416e-07 0)
(-2.67625e-05 1.16444e-07 0)
(-2.71678e-05 1.12837e-07 0)
(-2.75592e-05 1.09519e-07 0)
(-2.79364e-05 1.06021e-07 0)
(-2.82988e-05 1.01905e-07 0)
(-2.86462e-05 9.7332e-08 0)
(-2.89784e-05 9.27865e-08 0)
(-2.92956e-05 8.84045e-08 0)
(-2.95977e-05 8.40196e-08 0)
(-2.98844e-05 7.96414e-08 0)
(-3.01559e-05 7.54884e-08 0)
(-3.04122e-05 7.16208e-08 0)
(-3.06533e-05 6.78118e-08 0)
(-3.08791e-05 6.38166e-08 0)
(-3.10895e-05 5.9604e-08 0)
(-3.12843e-05 5.52636e-08 0)
(-3.14636e-05 5.08945e-08 0)
(-3.16272e-05 4.66191e-08 0)
(-3.17747e-05 4.24366e-08 0)
(-3.19057e-05 3.80751e-08 0)
(-3.20198e-05 3.32285e-08 0)
(-3.21163e-05 2.79089e-08 0)
(-3.21951e-05 2.24447e-08 0)
(-3.22562e-05 1.71301e-08 0)
(-3.22996e-05 1.19155e-08 0)
(-3.2325e-05 6.52406e-09 0)
(-3.23321e-05 8.65633e-10 0)
(-3.23206e-05 -4.8222e-09 0)
(-3.22908e-05 -1.02652e-08 0)
(-3.22429e-05 -1.54621e-08 0)
(-3.21771e-05 -2.07011e-08 0)
(-3.20936e-05 -2.62664e-08 0)
(-3.19923e-05 -3.20716e-08 0)
(-3.18734e-05 -3.7668e-08 0)
(-3.17371e-05 -4.26858e-08 0)
(-3.15836e-05 -4.7214e-08 0)
(-3.1413e-05 -5.17348e-08 0)
(-3.12252e-05 -5.66931e-08 0)
(-3.10204e-05 -6.20845e-08 0)
(-3.07987e-05 -6.74651e-08 0)
(-3.05604e-05 -7.2369e-08 0)
(-3.03058e-05 -7.66881e-08 0)
(-3.00354e-05 -8.06926e-08 0)
(-2.97492e-05 -8.4747e-08 0)
(-2.94474e-05 -8.89958e-08 0)
(-2.91303e-05 -9.33057e-08 0)
(-2.87982e-05 -9.74715e-08 0)
(-2.84512e-05 -1.01422e-07 0)
(-2.80895e-05 -1.05249e-07 0)
(-2.77134e-05 -1.09124e-07 0)
(-2.73229e-05 -1.13218e-07 0)
(-2.6918e-05 -1.17606e-07 0)
(-2.64986e-05 -1.22181e-07 0)
(-2.60645e-05 -1.26687e-07 0)
(-2.56159e-05 -1.30912e-07 0)
(-2.5153e-05 -1.34902e-07 0)
(-2.46761e-05 -1.38919e-07 0)
(-2.41853e-05 -1.43119e-07 0)
(-2.36809e-05 -1.4736e-07 0)
(-2.31634e-05 -1.51338e-07 0)
(-2.26333e-05 -1.54863e-07 0)
(-2.20909e-05 -1.57963e-07 0)
(-2.15369e-05 -1.60818e-07 0)
(-2.09715e-05 -1.63646e-07 0)
(-2.0395e-05 -1.66616e-07 0)
(-1.98076e-05 -1.69748e-07 0)
(-1.92093e-05 -1.7289e-07 0)
(-1.86002e-05 -1.75859e-07 0)
(-1.79808e-05 -1.78636e-07 0)
(-1.73514e-05 -1.81387e-07 0)
(-1.67124e-05 -1.84237e-07 0)
(-1.60643e-05 -1.87102e-07 0)
(-1.54074e-05 -1.89778e-07 0)
(-1.47425e-05 -1.92119e-07 0)
(-1.407e-05 -1.94076e-07 0)
(-1.33909e-05 -1.95691e-07 0)
(-1.27062e-05 -1.97088e-07 0)
(-1.20172e-05 -1.98364e-07 0)
(-1.13249e-05 -1.99414e-07 0)
(-1.06306e-05 -1.99928e-07 0)
(-9.93538e-06 -1.9967e-07 0)
(-9.2406e-06 -1.9875e-07 0)
(-8.54759e-06 -1.97503e-07 0)
(-7.85795e-06 -1.96122e-07 0)
(-7.17367e-06 -1.94442e-07 0)
(-6.49717e-06 -1.92102e-07 0)
(-5.83112e-06 -1.88832e-07 0)
(-5.1784e-06 -1.84561e-07 0)
(-4.54206e-06 -1.79289e-07 0)
(-3.92538e-06 -1.72962e-07 0)
(-3.33194e-06 -1.65506e-07 0)
(-2.76568e-06 -1.56886e-07 0)
(-2.23094e-06 -1.47018e-07 0)
(-1.73248e-06 -1.35683e-07 0)
(-1.27545e-06 -1.22551e-07 0)
(-8.65319e-07 -1.07302e-07 0)
(-5.07679e-07 -8.99018e-08 0)
(-2.07792e-07 -7.06729e-08 0)
(2.97055e-08 -4.9958e-08 0)
(2.01067e-07 -2.80515e-08 0)
(3.04067e-07 -5.41539e-09 0)
(3.38702e-07 1.71264e-08 0)
(3.08342e-07 3.77295e-08 0)
(2.23433e-07 5.23951e-08 0)
(1.11234e-07 5.31534e-08 0)
(2.70374e-08 2.6826e-08 0)
(1.12151e-07 -1.22711e-07 0)
(2.38976e-07 -1.33237e-07 0)
(3.78594e-07 -1.77923e-07 0)
(5.14e-07 -1.71879e-07 0)
(5.63424e-07 -8.89381e-08 0)
(4.48003e-07 5.57183e-08 0)
(1.48106e-07 2.17263e-07 0)
(-3.48364e-07 3.70752e-07 0)
(-1.03796e-06 5.11986e-07 0)
(-1.91248e-06 6.40567e-07 0)
(-2.95711e-06 7.57684e-07 0)
(-4.15373e-06 8.65552e-07 0)
(-5.48812e-06 9.62393e-07 0)
(-6.94363e-06 1.04629e-06 0)
(-8.50377e-06 1.11705e-06 0)
(-1.01571e-05 1.1765e-06 0)
(-1.18915e-05 1.22742e-06 0)
(-1.36933e-05 1.27155e-06 0)
(-1.55507e-05 1.30697e-06 0)
(-1.7453e-05 1.33213e-06 0)
(-1.93916e-05 1.34962e-06 0)
(-2.13605e-05 1.3637e-06 0)
(-2.33526e-05 1.37703e-06 0)
(-2.536e-05 1.38867e-06 0)
(-2.73757e-05 1.3953e-06 0)
(-2.93944e-05 1.39574e-06 0)
(-3.1412e-05 1.39171e-06 0)
(-3.34253e-05 1.38523e-06 0)
(-3.54305e-05 1.37747e-06 0)
(-3.7424e-05 1.36873e-06 0)
(-3.94029e-05 1.35859e-06 0)
(-4.13646e-05 1.34649e-06 0)
(-4.33066e-05 1.33221e-06 0)
(-4.52271e-05 1.31612e-06 0)
(-4.7124e-05 1.29885e-06 0)
(-4.89954e-05 1.28053e-06 0)
(-5.08396e-05 1.26077e-06 0)
(-5.2655e-05 1.23942e-06 0)
(-5.44403e-05 1.21706e-06 0)
(-5.61949e-05 1.1945e-06 0)
(-5.79177e-05 1.17166e-06 0)
(-5.96075e-05 1.14809e-06 0)
(-6.12633e-05 1.12391e-06 0)
(-6.28846e-05 1.09948e-06 0)
(-6.44707e-05 1.07496e-06 0)
(-6.60214e-05 1.05043e-06 0)
(-6.75363e-05 1.02579e-06 0)
(-6.9015e-05 1.00101e-06 0)
(-7.04568e-05 9.76149e-07 0)
(-7.18613e-05 9.51173e-07 0)
(-7.32282e-05 9.25853e-07 0)
(-7.4557e-05 9.00092e-07 0)
(-7.58467e-05 8.73892e-07 0)
(-7.70965e-05 8.47103e-07 0)
(-7.83061e-05 8.19609e-07 0)
(-7.9475e-05 7.91624e-07 0)
(-8.06027e-05 7.63425e-07 0)
(-8.16883e-05 7.34906e-07 0)
(-8.27309e-05 7.05727e-07 0)
(-8.37301e-05 6.75844e-07 0)
(-8.46856e-05 6.45566e-07 0)
(-8.55971e-05 6.15144e-07 0)
(-8.64643e-05 5.84663e-07 0)
(-8.72866e-05 5.5417e-07 0)
(-8.80637e-05 5.23691e-07 0)
(-8.87955e-05 4.93187e-07 0)
(-8.94819e-05 4.62598e-07 0)
(-9.01225e-05 4.31859e-07 0)
(-9.07168e-05 4.00928e-07 0)
(-9.12644e-05 3.69741e-07 0)
(-9.17652e-05 3.38159e-07 0)
(-9.22188e-05 3.06055e-07 0)
(-9.26249e-05 2.73378e-07 0)
(-9.2983e-05 2.40069e-07 0)
(-9.32921e-05 2.06098e-07 0)
(-9.35518e-05 1.71542e-07 0)
(-9.37616e-05 1.36534e-07 0)
(-9.39216e-05 1.01218e-07 0)
(-9.40316e-05 6.5706e-08 0)
(-9.40914e-05 2.99847e-08 0)
(-9.41006e-05 -5.99039e-09 0)
(-9.4059e-05 -4.20643e-08 0)
(-9.39668e-05 -7.79057e-08 0)
(-9.38243e-05 -1.13284e-07 0)
(-9.36316e-05 -1.4828e-07 0)
(-9.33888e-05 -1.83198e-07 0)
(-9.30961e-05 -2.18195e-07 0)
(-9.27537e-05 -2.53064e-07 0)
(-9.2362e-05 -2.87492e-07 0)
(-9.19214e-05 -3.21404e-07 0)
(-9.1432e-05 -3.55004e-07 0)
(-9.08943e-05 -3.88561e-07 0)
(-9.03083e-05 -4.2217e-07 0)
(-8.96744e-05 -4.5563e-07 0)
(-8.89931e-05 -4.88583e-07 0)
(-8.8265e-05 -5.20786e-07 0)
(-8.74906e-05 -5.52269e-07 0)
(-8.66703e-05 -5.83276e-07 0)
(-8.58048e-05 -6.14003e-07 0)
(-8.48945e-05 -6.44404e-07 0)
(-8.39401e-05 -6.74306e-07 0)
(-8.29418e-05 -7.03657e-07 0)
(-8.19002e-05 -7.32616e-07 0)
(-8.08159e-05 -7.61415e-07 0)
(-7.96894e-05 -7.90223e-07 0)
(-7.8521e-05 -8.19099e-07 0)
(-7.7311e-05 -8.47991e-07 0)
(-7.60598e-05 -8.7673e-07 0)
(-7.47679e-05 -9.05076e-07 0)
(-7.34358e-05 -9.32886e-07 0)
(-7.20641e-05 -9.60225e-07 0)
(-7.06533e-05 -9.87208e-07 0)
(-6.92044e-05 -1.01376e-06 0)
(-6.77182e-05 -1.03961e-06 0)
(-6.61957e-05 -1.06446e-06 0)
(-6.46376e-05 -1.08827e-06 0)
(-6.30446e-05 -1.11127e-06 0)
(-6.14177e-05 -1.13374e-06 0)
(-5.97578e-05 -1.15591e-06 0)
(-5.80657e-05 -1.17782e-06 0)
(-5.63423e-05 -1.19935e-06 0)
(-5.45884e-05 -1.22025e-06 0)
(-5.2805e-05 -1.24032e-06 0)
(-5.09931e-05 -1.25956e-06 0)
(-4.91539e-05 -1.27806e-06 0)
(-4.72886e-05 -1.29582e-06 0)
(-4.5399e-05 -1.31261e-06 0)
(-4.34867e-05 -1.3281e-06 0)
(-4.15537e-05 -1.34191e-06 0)
(-3.96021e-05 -1.35374e-06 0)
(-3.76342e-05 -1.36345e-06 0)
(-3.56529e-05 -1.37113e-06 0)
(-3.36611e-05 -1.37682e-06 0)
(-3.16622e-05 -1.38031e-06 0)
(-2.96602e-05 -1.38116e-06 0)
(-2.76589e-05 -1.37895e-06 0)
(-2.5663e-05 -1.37341e-06 0)
(-2.36774e-05 -1.36427e-06 0)
(-2.1708e-05 -1.35105e-06 0)
(-1.97615e-05 -1.33309e-06 0)
(-1.7845e-05 -1.30969e-06 0)
(-1.59666e-05 -1.28033e-06 0)
(-1.4135e-05 -1.24454e-06 0)
(-1.23598e-05 -1.2018e-06 0)
(-1.06512e-05 -1.15152e-06 0)
(-9.02033e-06 -1.09307e-06 0)
(-7.47889e-06 -1.02582e-06 0)
(-6.03936e-06 -9.49041e-07 0)
(-4.7147e-06 -8.62054e-07 0)
(-3.51812e-06 -7.64489e-07 0)
(-2.46258e-06 -6.5656e-07 0)
(-1.5601e-06 -5.39271e-07 0)
(-8.21119e-07 -4.14336e-07 0)
(-2.53389e-07 -2.84079e-07 0)
(1.39618e-07 -1.52057e-07 0)
(3.60806e-07 -2.41798e-08 0)
(4.22097e-07 8.96246e-08 0)
(3.49389e-07 1.7244e-07 0)
(1.95818e-07 1.95111e-07 0)
(5.39334e-08 1.11796e-07 0)
(9.13157e-08 -2.41072e-07 0)
(1.4993e-07 -2.8999e-07 0)
(1.9942e-07 -2.86309e-07 0)
(1.80991e-07 -1.99826e-07 0)
(1.80514e-08 3.41133e-08 0)
(-3.6563e-07 3.83737e-07 0)
(-1.01017e-06 7.78729e-07 0)
(-1.92588e-06 1.17899e-06 0)
(-3.11804e-06 1.55987e-06 0)
(-4.57673e-06 1.91193e-06 0)
(-6.2834e-06 2.23366e-06 0)
(-8.2209e-06 2.52308e-06 0)
(-1.03679e-05 2.78192e-06 0)
(-1.27016e-05 3.01149e-06 0)
(-1.52013e-05 3.211e-06 0)
(-1.78458e-05 3.38199e-06 0)
(-2.06172e-05 3.52903e-06 0)
(-2.34994e-05 3.65459e-06 0)
(-2.64742e-05 3.75935e-06 0)
(-2.95238e-05 3.84396e-06 0)
(-3.26339e-05 3.90877e-06 0)
(-3.57922e-05 3.95667e-06 0)
(-3.8988e-05 3.9919e-06 0)
(-4.22112e-05 4.01612e-06 0)
(-4.54513e-05 4.02968e-06 0)
(-4.86982e-05 4.03334e-06 0)
(-5.19449e-05 4.02774e-06 0)
(-5.51853e-05 4.01416e-06 0)
(-5.8413e-05 3.99393e-06 0)
(-6.16226e-05 3.96781e-06 0)
(-6.48093e-05 3.93649e-06 0)
(-6.79687e-05 3.90029e-06 0)
(-7.1097e-05 3.85904e-06 0)
(-7.41906e-05 3.81334e-06 0)
(-7.72466e-05 3.76399e-06 0)
(-8.02629e-05 3.7114e-06 0)
(-8.32371e-05 3.65574e-06 0)
(-8.6166e-05 3.59718e-06 0)
(-8.90477e-05 3.53596e-06 0)
(-9.18808e-05 3.4726e-06 0)
(-9.46638e-05 3.40743e-06 0)
(-9.7395e-05 3.34047e-06 0)
(-0.000100073 3.27205e-06 0)
(-0.000102696 3.20266e-06 0)
(-0.000105264 3.13242e-06 0)
(-0.000107774 3.06129e-06 0)
(-0.000110227 2.98927e-06 0)
(-0.00011262 2.91636e-06 0)
(-0.000114953 2.8425e-06 0)
(-0.000117225 2.76759e-06 0)
(-0.000119435 2.6916e-06 0)
(-0.000121582 2.61461e-06 0)
(-0.000123666 2.53664e-06 0)
(-0.000125684 2.45749e-06 0)
(-0.000127636 2.37684e-06 0)
(-0.000129521 2.29462e-06 0)
(-0.000131339 2.21109e-06 0)
(-0.000133089 2.12647e-06 0)
(-0.000134769 2.04072e-06 0)
(-0.000136379 1.95385e-06 0)
(-0.000137918 1.86605e-06 0)
(-0.000139385 1.77754e-06 0)
(-0.000140781 1.68845e-06 0)
(-0.000142103 1.59886e-06 0)
(-0.000143352 1.50875e-06 0)
(-0.000144526 1.41806e-06 0)
(-0.000145626 1.3268e-06 0)
(-0.000146651 1.23508e-06 0)
(-0.0001476 1.14294e-06 0)
(-0.000148472 1.05027e-06 0)
(-0.000149268 9.56744e-07 0)
(-0.000149986 8.62069e-07 0)
(-0.000150626 7.66124e-07 0)
(-0.000151189 6.68984e-07 0)
(-0.000151673 5.70864e-07 0)
(-0.000152077 4.71983e-07 0)
(-0.000152403 3.72426e-07 0)
(-0.000152648 2.72219e-07 0)
(-0.000152814 1.71478e-07 0)
(-0.000152901 7.03349e-08 0)
(-0.000152907 -3.1109e-08 0)
(-0.000152832 -1.32667e-07 0)
(-0.000152678 -2.34007e-07 0)
(-0.000152444 -3.3481e-07 0)
(-0.00015213 -4.34967e-07 0)
(-0.000151736 -5.3462e-07 0)
(-0.000151263 -6.33953e-07 0)
(-0.00015071 -7.32974e-07 0)
(-0.000150078 -8.31554e-07 0)
(-0.000149368 -9.29562e-07 0)
(-0.00014858 -1.02692e-06 0)
(-0.000147715 -1.12358e-06 0)
(-0.000146772 -1.21954e-06 0)
(-0.000145752 -1.31476e-06 0)
(-0.000144657 -1.40906e-06 0)
(-0.000143486 -1.50226e-06 0)
(-0.00014224 -1.59425e-06 0)
(-0.00014092 -1.6851e-06 0)
(-0.000139527 -1.77494e-06 0)
(-0.000138061 -1.8638e-06 0)
(-0.000136522 -1.95156e-06 0)
(-0.000134913 -2.03819e-06 0)
(-0.000133233 -2.1238e-06 0)
(-0.000131484 -2.20858e-06 0)
(-0.000129666 -2.29268e-06 0)
(-0.00012778 -2.37617e-06 0)
(-0.000125827 -2.45903e-06 0)
(-0.000123807 -2.54117e-06 0)
(-0.000121723 -2.62235e-06 0)
(-0.000119574 -2.70229e-06 0)
(-0.000117362 -2.78081e-06 0)
(-0.000115088 -2.8579e-06 0)
(-0.000112752 -2.93349e-06 0)
(-0.000110357 -3.00741e-06 0)
(-0.000107903 -3.07947e-06 0)
(-0.000105392 -3.14956e-06 0)
(-0.000102824 -3.21778e-06 0)
(-0.0001002 -3.2843e-06 0)
(-9.75235e-05 -3.34929e-06 0)
(-9.47944e-05 -3.41281e-06 0)
(-9.20147e-05 -3.47477e-06 0)
(-8.91859e-05 -3.53489e-06 0)
(-8.63099e-05 -3.59287e-06 0)
(-8.33883e-05 -3.64848e-06 0)
(-8.04232e-05 -3.70154e-06 0)
(-7.74167e-05 -3.7519e-06 0)
(-7.43713e-05 -3.79925e-06 0)
(-7.129e-05 -3.84308e-06 0)
(-6.81757e-05 -3.88274e-06 0)
(-6.50318e-05 -3.91749e-06 0)
(-6.1862e-05 -3.9467e-06 0)
(-5.86704e-05 -3.96997e-06 0)
(-5.54617e-05 -3.98701e-06 0)
(-5.22412e-05 -3.99733e-06 0)
(-4.9015e-05 -4.00012e-06 0)
(-4.579e-05 -3.9943e-06 0)
(-4.2574e-05 -3.97871e-06 0)
(-3.93752e-05 -3.95213e-06 0)
(-3.62029e-05 -3.91319e-06 0)
(-3.30677e-05 -3.86039e-06 0)
(-2.99808e-05 -3.79223e-06 0)
(-2.69549e-05 -3.70729e-06 0)
(-2.40038e-05 -3.60416e-06 0)
(-2.11423e-05 -3.48138e-06 0)
(-1.83867e-05 -3.33732e-06 0)
(-1.57542e-05 -3.17038e-06 0)
(-1.32626e-05 -2.97909e-06 0)
(-1.09306e-05 -2.76217e-06 0)
(-8.77694e-06 -2.5188e-06 0)
(-6.82043e-06 -2.24888e-06 0)
(-5.07918e-06 -1.95343e-06 0)
(-3.56975e-06 -1.63507e-06 0)
(-2.30612e-06 -1.29825e-06 0)
(-1.29827e-06 -9.49733e-07 0)
(-5.49856e-07 -5.99792e-07 0)
(-5.55131e-08 -2.64086e-07 0)
(2.02184e-07 3.33636e-08 0)
(2.57422e-07 2.56138e-07 0)
(1.73486e-07 3.48791e-07 0)
(5.32923e-08 2.24888e-07 0)
(5.95677e-08 -3.23603e-07 0)
(1.32206e-08 -3.07983e-07 0)
(-1.46289e-07 -2.01013e-07 0)
(-4.514e-07 2.55203e-08 0)
(-9.42491e-07 4.67732e-07 0)
(-1.69282e-06 1.07342e-06 0)
(-2.74793e-06 1.76405e-06 0)
(-4.13111e-06 2.47196e-06 0)
(-5.84999e-06 3.16052e-06 0)
(-7.89554e-06 3.81016e-06 0)
(-1.02531e-05 4.40891e-06 0)
(-1.29003e-05 4.95224e-06 0)
(-1.58138e-05 5.44088e-06 0)
(-1.89713e-05 5.87623e-06 0)
(-2.23472e-05 6.25983e-06 0)
(-2.59146e-05 6.59279e-06 0)
(-2.96487e-05 6.87733e-06 0)
(-3.35282e-05 7.11823e-06 0)
(-3.75327e-05 7.32099e-06 0)
(-4.16427e-05 7.48864e-06 0)
(-4.5838e-05 7.62271e-06 0)
(-5.0099e-05 7.72526e-06 0)
(-5.441e-05 7.799e-06 0)
(-5.87578e-05 7.8477e-06 0)
(-6.31299e-05 7.87535e-06 0)
(-6.75149e-05 7.88409e-06 0)
(-7.19024e-05 7.87542e-06 0)
(-7.62826e-05 7.85138e-06 0)
(-8.06468e-05 7.81355e-06 0)
(-8.49874e-05 7.76339e-06 0)
(-8.9298e-05 7.70247e-06 0)
(-9.35732e-05 7.63189e-06 0)
(-9.78075e-05 7.55241e-06 0)
(-0.000101996 7.46483e-06 0)
(-0.000106134 7.36964e-06 0)
(-0.000110219 7.26772e-06 0)
(-0.000114248 7.16039e-06 0)
(-0.000118217 7.04819e-06 0)
(-0.000122123 6.93111e-06 0)
(-0.000125964 6.80953e-06 0)
(-0.000129738 6.68398e-06 0)
(-0.000133442 6.55486e-06 0)
(-0.000137075 6.42272e-06 0)
(-0.000140634 6.28795e-06 0)
(-0.000144119 6.15068e-06 0)
(-0.000147526 6.01115e-06 0)
(-0.000150855 5.86957e-06 0)
(-0.000154104 5.72592e-06 0)
(-0.00015727 5.58006e-06 0)
(-0.000160354 5.43184e-06 0)
(-0.000163353 5.28114e-06 0)
(-0.000166266 5.12818e-06 0)
(-0.000169092 4.97323e-06 0)
(-0.00017183 4.8162e-06 0)
(-0.000174478 4.65674e-06 0)
(-0.000177035 4.49465e-06 0)
(-0.0001795 4.33005e-06 0)
(-0.000181872 4.16327e-06 0)
(-0.000184149 3.9945e-06 0)
(-0.000186331 3.82374e-06 0)
(-0.000188417 3.65106e-06 0)
(-0.000190406 3.47676e-06 0)
(-0.000192296 3.30122e-06 0)
(-0.000194087 3.12459e-06 0)
(-0.000195778 2.94668e-06 0)
(-0.000197368 2.76729e-06 0)
(-0.000198855 2.58648e-06 0)
(-0.00020024 2.4045e-06 0)
(-0.000201522 2.22148e-06 0)
(-0.0002027 2.03744e-06 0)
(-0.000203773 1.85217e-06 0)
(-0.000204741 1.66532e-06 0)
(-0.000205603 1.47662e-06 0)
(-0.000206359 1.28619e-06 0)
(-0.000207008 1.09443e-06 0)
(-0.00020755 9.01691e-07 0)
(-0.000207985 7.0803e-07 0)
(-0.000208312 5.13397e-07 0)
(-0.000208532 3.17973e-07 0)
(-0.000208644 1.22097e-07 0)
(-0.000208648 -7.39865e-08 0)
(-0.000208543 -2.70137e-07 0)
(-0.000208331 -4.66181e-07 0)
(-0.000208011 -6.61882e-07 0)
(-0.000207582 -8.56971e-07 0)
(-0.000207047 -1.05123e-06 0)
(-0.000206404 -1.24455e-06 0)
(-0.000205654 -1.43699e-06 0)
(-0.000204797 -1.62865e-06 0)
(-0.000203834 -1.81957e-06 0)
(-0.000202765 -2.00956e-06 0)
(-0.000201591 -2.19827e-06 0)
(-0.000200313 -2.38548e-06 0)
(-0.000198931 -2.57111e-06 0)
(-0.000197446 -2.75515e-06 0)
(-0.000195859 -2.93751e-06 0)
(-0.00019417 -3.11805e-06 0)
(-0.00019238 -3.29668e-06 0)
(-0.000190491 -3.47341e-06 0)
(-0.000188503 -3.64822e-06 0)
(-0.000186417 -3.82109e-06 0)
(-0.000184234 -3.99202e-06 0)
(-0.000181956 -4.16111e-06 0)
(-0.000179582 -4.32845e-06 0)
(-0.000177115 -4.49405e-06 0)
(-0.000174556 -4.65782e-06 0)
(-0.000171906 -4.8197e-06 0)
(-0.000169166 -4.97967e-06 0)
(-0.000166338 -5.13763e-06 0)
(-0.000163423 -5.29333e-06 0)
(-0.000160421 -5.44647e-06 0)
(-0.000157336 -5.59682e-06 0)
(-0.000154169 -5.74423e-06 0)
(-0.00015092 -5.88855e-06 0)
(-0.000147592 -6.02964e-06 0)
(-0.000144185 -6.16742e-06 0)
(-0.000140701 -6.30191e-06 0)
(-0.000137143 -6.43313e-06 0)
(-0.000133512 -6.56102e-06 0)
(-0.000129811 -6.68552e-06 0)
(-0.000126041 -6.80651e-06 0)
(-0.000122205 -6.92376e-06 0)
(-0.000118305 -7.03686e-06 0)
(-0.000114343 -7.1453e-06 0)
(-0.000110323 -7.24858e-06 0)
(-0.000106248 -7.34623e-06 0)
(-0.000102121 -7.43768e-06 0)
(-9.79452e-05 -7.52222e-06 0)
(-9.37254e-05 -7.59894e-06 0)
(-8.94659e-05 -7.66677e-06 0)
(-8.51718e-05 -7.72449e-06 0)
(-8.0849e-05 -7.77084e-06 0)
(-7.65039e-05 -7.80467e-06 0)
(-7.21435e-05 -7.82481e-06 0)
(-6.7776e-05 -7.82983e-06 0)
(-6.34106e-05 -7.81788e-06 0)
(-5.90578e-05 -7.78679e-06 0)
(-5.47289e-05 -7.73415e-06 0)
(-5.04363e-05 -7.6574e-06 0)
(-4.6194e-05 -7.55386e-06 0)
(-4.2017e-05 -7.42076e-06 0)
(-3.79222e-05 -7.25535e-06 0)
(-3.39274e-05 -7.05489e-06 0)
(-3.00521e-05 -6.81666e-06 0)
(-2.63171e-05 -6.53796e-06 0)
(-2.27445e-05 -6.21614e-06 0)
(-1.93572e-05 -5.84885e-06 0)
(-1.61787e-05 -5.43435e-06 0)
(-1.32324e-05 -4.97186e-06 0)
(-1.05414e-05 -4.46201e-06 0)
(-8.12765e-06 -3.90724e-06 0)
(-6.01093e-06 -3.31254e-06 0)
(-4.20759e-06 -2.68621e-06 0)
(-2.72893e-06 -2.04092e-06 0)
(-1.5788e-06 -1.39544e-06 0)
(-7.50855e-07 -7.77271e-07 0)
(-2.25567e-07 -2.26196e-07 0)
(3.37666e-08 2.00833e-07 0)
(9.00171e-08 4.21732e-07 0)
(3.83881e-08 3.1078e-07 0)
(1.9196e-08 -2.97985e-07 0)
(-1.24536e-07 -1.32952e-07 0)
(-4.96814e-07 1.43193e-07 0)
(-1.10262e-06 5.78493e-07 0)
(-1.97516e-06 1.28074e-06 0)
(-3.15166e-06 2.19549e-06 0)
(-4.67532e-06 3.22227e-06 0)
(-6.56833e-06 4.28199e-06 0)
(-8.83797e-06 5.32421e-06 0)
(-1.14829e-05 6.31792e-06 0)
(-1.44879e-05 7.24566e-06 0)
(-1.78315e-05 8.09734e-06 0)
(-2.1488e-05 8.86717e-06 0)
(-2.54311e-05 9.55581e-06 0)
(-2.96352e-05 1.01666e-05 0)
(-3.40716e-05 1.07021e-05 0)
(-3.87105e-05 1.11639e-05 0)
(-4.35245e-05 1.15558e-05 0)
(-4.84887e-05 1.18835e-05 0)
(-5.35811e-05 1.21533e-05 0)
(-5.87798e-05 1.23717e-05 0)
(-6.40631e-05 1.25428e-05 0)
(-6.94108e-05 1.2669e-05 0)
(-7.48045e-05 1.27546e-05 0)
(-8.02289e-05 1.28037e-05 0)
(-8.56702e-05 1.28205e-05 0)
(-9.11158e-05 1.28088e-05 0)
(-9.65541e-05 1.27721e-05 0)
(-0.000101974 1.27131e-05 0)
(-0.000107367 1.26339e-05 0)
(-0.000112723 1.25364e-05 0)
(-0.000118037 1.24228e-05 0)
(-0.000123301 1.22952e-05 0)
(-0.000128509 1.21548e-05 0)
(-0.000133657 1.20023e-05 0)
(-0.000138738 1.18388e-05 0)
(-0.00014375 1.16659e-05 0)
(-0.000148689 1.14848e-05 0)
(-0.000153551 1.12962e-05 0)
(-0.000158332 1.11005e-05 0)
(-0.000163031 1.08982e-05 0)
(-0.000167643 1.06901e-05 0)
(-0.000172167 1.04767e-05 0)
(-0.0001766 1.02584e-05 0)
(-0.000180939 1.00353e-05 0)
(-0.000185183 9.80802e-06 0)
(-0.00018933 9.57684e-06 0)
(-0.000193376 9.34191e-06 0)
(-0.000197321 9.10321e-06 0)
(-0.000201163 8.86065e-06 0)
(-0.000204899 8.61412e-06 0)
(-0.000208528 8.36368e-06 0)
(-0.000212048 8.10945e-06 0)
(-0.000215458 7.85154e-06 0)
(-0.000218756 7.59002e-06 0)
(-0.000221941 7.32487e-06 0)
(-0.000225011 7.05603e-06 0)
(-0.000227964 6.78365e-06 0)
(-0.0002308 6.50794e-06 0)
(-0.000233517 6.22907e-06 0)
(-0.000236115 5.94712e-06 0)
(-0.00023859 5.66238e-06 0)
(-0.000240943 5.37523e-06 0)
(-0.000243172 5.08593e-06 0)
(-0.000245276 4.79449e-06 0)
(-0.000247254 4.5008e-06 0)
(-0.000249105 4.20489e-06 0)
(-0.000250828 3.90682e-06 0)
(-0.000252421 3.60668e-06 0)
(-0.000253885 3.30458e-06 0)
(-0.000255218 3.0006e-06 0)
(-0.000256421 2.69465e-06 0)
(-0.000257491 2.3866e-06 0)
(-0.000258429 2.07645e-06 0)
(-0.000259234 1.76443e-06 0)
(-0.000259906 1.45086e-06 0)
(-0.000260445 1.13603e-06 0)
(-0.00026085 8.20104e-07 0)
(-0.000261121 5.03245e-07 0)
(-0.000261257 1.8573e-07 0)
(-0.000261259 -1.32059e-07 0)
(-0.000261127 -4.49753e-07 0)
(-0.000260861 -7.67125e-07 0)
(-0.00026046 -1.0841e-06 0)
(-0.000259926 -1.40054e-06 0)
(-0.000259258 -1.71613e-06 0)
(-0.000258456 -2.03049e-06 0)
(-0.00025752 -2.34338e-06 0)
(-0.000256453 -2.65476e-06 0)
(-0.000255253 -2.9647e-06 0)
(-0.000253922 -3.27315e-06 0)
(-0.00025246 -3.57989e-06 0)
(-0.000250867 -3.88457e-06 0)
(-0.000249146 -4.18688e-06 0)
(-0.000247297 -4.48662e-06 0)
(-0.00024532 -4.78375e-06 0)
(-0.000243216 -5.07823e-06 0)
(-0.000240987 -5.36999e-06 0)
(-0.000238634 -5.65885e-06 0)
(-0.000236158 -5.94466e-06 0)
(-0.000233559 -6.22736e-06 0)
(-0.00023084 -6.50693e-06 0)
(-0.000228001 -6.7834e-06 0)
(-0.000225044 -7.05682e-06 0)
(-0.000221971 -7.3272e-06 0)
(-0.000218783 -7.59445e-06 0)
(-0.000215481 -7.85835e-06 0)
(-0.000212067 -8.11867e-06 0)
(-0.000208544 -8.37527e-06 0)
(-0.000204911 -8.62806e-06 0)
(-0.000201173 -8.87683e-06 0)
(-0.000197329 -9.12132e-06 0)
(-0.000193383 -9.36122e-06 0)
(-0.000189335 -9.59626e-06 0)
(-0.000185188 -9.82623e-06 0)
(-0.000180944 -1.0051e-05 0)
(-0.000176605 -1.02706e-05 0)
(-0.000172173 -1.04848e-05 0)
(-0.000167651 -1.06935e-05 0)
(-0.000163041 -1.08965e-05 0)
(-0.000158346 -1.10933e-05 0)
(-0.000153569 -1.12837e-05 0)
(-0.000148712 -1.14671e-05 0)
(-0.00014378 -1.16429e-05 0)
(-0.000138775 -1.18103e-05 0)
(-0.000133701 -1.19683e-05 0)
(-0.000128564 -1.2116e-05 0)
(-0.000123367 -1.22522e-05 0)
(-0.000118117 -1.23756e-05 0)
(-0.000112817 -1.24846e-05 0)
(-0.000107476 -1.25777e-05 0)
(-0.000102099 -1.26529e-05 0)
(-9.6695e-05 -1.27077e-05 0)
(-9.12734e-05 -1.274e-05 0)
(-8.58441e-05 -1.27472e-05 0)
(-8.04184e-05 -1.27265e-05 0)
(-7.50088e-05 -1.26746e-05 0)
(-6.96293e-05 -1.25878e-05 0)
(-6.42952e-05 -1.24622e-05 0)
(-5.90232e-05 -1.22937e-05 0)
(-5.3832e-05 -1.20779e-05 0)
(-4.87416e-05 -1.18106e-05 0)
(-4.37736e-05 -1.14875e-05 0)
(-3.89514e-05 -1.11042e-05 0)
(-3.42995e-05 -1.06568e-05 0)
(-2.98437e-05 -1.01417e-05 0)
(-2.56109e-05 -9.55594e-06 0)
(-2.16283e-05 -8.89741e-06 0)
(-1.79232e-05 -8.16558e-06 0)
(-1.4522e-05 -7.36205e-06 0)
(-1.14494e-05 -6.49122e-06 0)
(-8.72798e-06 -5.56113e-06 0)
(-6.37579e-06 -4.58478e-06 0)
(-4.40545e-06 -3.58152e-06 0)
(-2.82172e-06 -2.57926e-06 0)
(-1.61895e-06 -1.61752e-06 0)
(-7.78442e-07 -7.51409e-07 0)
(-2.65232e-07 -5.68871e-08 0)
(-2.46953e-08 3.6032e-07 0)
(1.75588e-08 3.41659e-07 0)
(-2.13246e-08 -1.95199e-07 0)
(-2.56581e-07 2.12381e-07 0)
(-8.26413e-07 7.59307e-07 0)
(-1.73149e-06 1.48122e-06 0)
(-2.98442e-06 2.50695e-06 0)
(-4.60695e-06 3.777e-06 0)
(-6.62502e-06 5.18493e-06 0)
(-9.05162e-06 6.64055e-06 0)
(-1.18936e-05 8.07802e-06 0)
(-1.51453e-05 9.45656e-06 0)
(-1.87948e-05 1.07525e-05 0)
(-2.28219e-05 1.1951e-05 0)
(-2.71996e-05 1.30427e-05 0)
(-3.18986e-05 1.40235e-05 0)
(-3.68902e-05 1.48959e-05 0)
(-4.21461e-05 1.56641e-05 0)
(-4.76354e-05 1.63322e-05 0)
(-5.33269e-05 1.69043e-05 0)
(-5.91918e-05 1.7385e-05 0)
(-6.52029e-05 1.77812e-05 0)
(-7.13357e-05 1.81006e-05 0)
(-7.75677e-05 1.83505e-05 0)
(-8.38764e-05 1.85375e-05 0)
(-9.02409e-05 1.86668e-05 0)
(-9.66427e-05 1.87435e-05 0)
(-0.000103065 1.87728e-05 0)
(-0.000109494 1.87599e-05 0)
(-0.000115914 1.87095e-05 0)
(-0.000122314 1.86261e-05 0)
(-0.000128684 1.85129e-05 0)
(-0.000135013 1.83729e-05 0)
(-0.000141291 1.82091e-05 0)
(-0.000147512 1.8024e-05 0)
(-0.000153669 1.78201e-05 0)
(-0.000159755 1.75992e-05 0)
(-0.000165764 1.73627e-05 0)
(-0.000171692 1.7112e-05 0)
(-0.000177533 1.68488e-05 0)
(-0.000183284 1.65742e-05 0)
(-0.000188941 1.62891e-05 0)
(-0.0001945 1.59945e-05 0)
(-0.000199958 1.56913e-05 0)
(-0.000205311 1.53799e-05 0)
(-0.000210558 1.50609e-05 0)
(-0.000215694 1.47347e-05 0)
(-0.000220717 1.44019e-05 0)
(-0.000225625 1.40627e-05 0)
(-0.000230415 1.37174e-05 0)
(-0.000235085 1.33661e-05 0)
(-0.000239632 1.3009e-05 0)
(-0.000244055 1.26464e-05 0)
(-0.000248351 1.22781e-05 0)
(-0.000252519 1.19041e-05 0)
(-0.000256555 1.15244e-05 0)
(-0.000260459 1.11393e-05 0)
(-0.000264229 1.0749e-05 0)
(-0.000267863 1.03536e-05 0)
(-0.000271359 9.95319e-06 0)
(-0.000274716 9.54795e-06 0)
(-0.000277932 9.13809e-06 0)
(-0.000281006 8.72388e-06 0)
(-0.000283935 8.30562e-06 0)
(-0.000286719 7.88353e-06 0)
(-0.000289356 7.45777e-06 0)
(-0.000291846 7.02854e-06 0)
(-0.000294185 6.59602e-06 0)
(-0.000296375 6.16037e-06 0)
(-0.000298412 5.72169e-06 0)
(-0.000300297 5.28002e-06 0)
(-0.000302028 4.83537e-06 0)
(-0.000303604 4.38781e-06 0)
(-0.000305026 3.93751e-06 0)
(-0.000306291 3.48471e-06 0)
(-0.000307399 3.02958e-06 0)
(-0.00030835 2.57217e-06 0)
(-0.000309144 2.11266e-06 0)
(-0.000309779 1.65142e-06 0)
(-0.000310256 1.18888e-06 0)
(-0.000310575 7.25306e-07 0)
(-0.000310735 2.60901e-07 0)
(-0.000310736 -2.03965e-07 0)
(-0.000310578 -6.68812e-07 0)
(-0.000310261 -1.13322e-06 0)
(-0.000309786 -1.59692e-06 0)
(-0.000309153 -2.05973e-06 0)
(-0.000308361 -2.5214e-06 0)
(-0.000307411 -2.98162e-06 0)
(-0.000306303 -3.44013e-06 0)
(-0.000305039 -3.89664e-06 0)
(-0.000303618 -4.35089e-06 0)
(-0.000302042 -4.80271e-06 0)
(-0.000300311 -5.25197e-06 0)
(-0.000298427 -5.69845e-06 0)
(-0.000296389 -6.14179e-06 0)
(-0.000294199 -6.58165e-06 0)
(-0.000291859 -7.01783e-06 0)
(-0.000289369 -7.45024e-06 0)
(-0.00028673 -7.87878e-06 0)
(-0.000283945 -8.30321e-06 0)
(-0.000281013 -8.72334e-06 0)
(-0.000277936 -9.13905e-06 0)
(-0.000274717 -9.55024e-06 0)
(-0.000271356 -9.95679e-06 0)
(-0.000267856 -1.03586e-05 0)
(-0.000264218 -1.07557e-05 0)
(-0.000260443 -1.11479e-05 0)
(-0.000256534 -1.15352e-05 0)
(-0.000252492 -1.19172e-05 0)
(-0.00024832 -1.22935e-05 0)
(-0.00024402 -1.2664e-05 0)
(-0.000239594 -1.30285e-05 0)
(-0.000235043 -1.33867e-05 0)
(-0.000230371 -1.37383e-05 0)
(-0.000225579 -1.4083e-05 0)
(-0.00022067 -1.44205e-05 0)
(-0.000215645 -1.47504e-05 0)
(-0.000210509 -1.50727e-05 0)
(-0.000205263 -1.5387e-05 0)
(-0.00019991 -1.56931e-05 0)
(-0.000194453 -1.59907e-05 0)
(-0.000188897 -1.62791e-05 0)
(-0.000183243 -1.65577e-05 0)
(-0.000177496 -1.68257e-05 0)
(-0.00017166 -1.70822e-05 0)
(-0.000165738 -1.73263e-05 0)
(-0.000159736 -1.75567e-05 0)
(-0.000153659 -1.77719e-05 0)
(-0.000147512 -1.79702e-05 0)
(-0.000141303 -1.81495e-05 0)
(-0.000135036 -1.83076e-05 0)
(-0.000128721 -1.84422e-05 0)
(-0.000122365 -1.85506e-05 0)
(-0.000115978 -1.86296e-05 0)
(-0.000109571 -1.86757e-05 0)
(-0.000103155 -1.8685e-05 0)
(-9.67449e-05 -1.86533e-05 0)
(-9.03541e-05 -1.85759e-05 0)
(-8.39989e-05 -1.84477e-05 0)
(-7.76972e-05 -1.82631e-05 0)
(-7.14684e-05 -1.80165e-05 0)
(-6.53338e-05 -1.7702e-05 0)
(-5.93163e-05 -1.73136e-05 0)
(-5.34406e-05 -1.68452e-05 0)
(-4.7733e-05 -1.62911e-05 0)
(-4.22213e-05 -1.56459e-05 0)
(-3.69345e-05 -1.49048e-05 0)
(-3.19026e-05 -1.40643e-05 0)
(-2.71556e-05 -1.31222e-05 0)
(-2.27238e-05 -1.20785e-05 0)
(-1.86362e-05 -1.0936e-05 0)
(-1.49202e-05 -9.70144e-06 0)
(-1.16002e-05 -8.38629e-06 0)
(-8.69628e-06 -7.00865e-06 0)
(-6.22277e-06 -5.5948e-06 0)
(-4.18624e-06 -4.18171e-06 0)
(-2.58347e-06 -2.82029e-06 0)
(-1.39895e-06 -1.57958e-06 0)
(-6.02577e-07 -5.51875e-07 0)
(-1.53362e-07 1.38129e-07 0)
(-5.10402e-09 3.07017e-07 0)
(-4.6805e-08 -3.55471e-08 0)
(-3.76151e-07 7.09176e-07 0)
(-1.14338e-06 1.622e-06 0)
(-2.33886e-06 2.72942e-06 0)
(-3.96657e-06 4.15084e-06 0)
(-6.03076e-06 5.83096e-06 0)
(-8.54173e-06 7.66413e-06 0)
(-1.15061e-05 9.55214e-06 0)
(-1.49219e-05 1.14224e-05 0)
(-1.87803e-05 1.32227e-05 0)
(-2.30657e-05 1.4921e-05 0)
(-2.77591e-05 1.64988e-05 0)
(-3.28348e-05 1.7944e-05 0)
(-3.82604e-05 1.92498e-05 0)
(-4.40046e-05 2.04144e-05 0)
(-5.00365e-05 2.14416e-05 0)
(-5.63248e-05 2.23375e-05 0)
(-6.28379e-05 2.31083e-05 0)
(-6.95445e-05 2.37608e-05 0)
(-7.64142e-05 2.4302e-05 0)
(-8.34194e-05 2.47395e-05 0)
(-9.05345e-05 2.50822e-05 0)
(-9.77356e-05 2.53391e-05 0)
(-0.000105 2.5518e-05 0)
(-0.000112308 2.56262e-05 0)
(-0.000119641 2.56704e-05 0)
(-0.00012698 2.56572e-05 0)
(-0.000134311 2.55925e-05 0)
(-0.000141621 2.54821e-05 0)
(-0.000148896 2.53306e-05 0)
(-0.000156126 2.51427e-05 0)
(-0.000163299 2.49221e-05 0)
(-0.000170408 2.4672e-05 0)
(-0.000177445 2.43954e-05 0)
(-0.000184401 2.40956e-05 0)
(-0.000191272 2.37747e-05 0)
(-0.000198049 2.34347e-05 0)
(-0.000204729 2.30771e-05 0)
(-0.000211306 2.27035e-05 0)
(-0.000217776 2.23154e-05 0)
(-0.000224135 2.19141e-05 0)
(-0.000230378 2.15006e-05 0)
(-0.000236502 2.10755e-05 0)