/*--------------------------------*- C++ -*----------------------------------*\
  =========                 |
  \\      /  F ield         | OpenFOAM: The Open Source CFD Toolbox
   \\    /   O peration     | Website:  https://openfoam.org
    \\  /    A nd           | Version:  7
     \\/     M anipulation  |
\*---------------------------------------------------------------------------*/
FoamFile
{
    version     2.0;
    format      ascii;
    class       surfaceScalarField;
    location    "0.4375";
    object      phi;
}
// * * * * * * * * * * * * * * * * * * * * * * * * * * * * * * * * * * * * * //

dimensions      [0 3 -1 0 0 0 0];

internalField   nonuniform List<scalar> 
25360
(
5.16945e-11
-5.16924e-11
1.93247e-10
-1.41543e-10
3.6066e-10
-1.67418e-10
5.06496e-10
-1.45839e-10
6.02679e-10
-9.61824e-11
6.33302e-10
-3.06217e-11
5.90181e-10
4.31198e-11
4.70107e-10
1.20068e-10
2.73131e-10
1.96982e-10
1.3305e-12
2.71799e-10
-3.41741e-10
3.43065e-10
-7.51891e-10
4.1015e-10
-1.22436e-09
4.72475e-10
-1.75416e-09
5.2979e-10
-2.3362e-09
5.82052e-10
-2.96551e-09
6.29312e-10
-3.63726e-09
6.7174e-10
-4.34682e-09
7.09561e-10
-5.08985e-09
7.43029e-10
-5.86231e-09
7.72453e-10
-6.66045e-09
7.98149e-10
-7.48088e-09
8.20431e-10
-8.32052e-09
8.39629e-10
-9.17657e-09
8.56063e-10
-1.00466e-08
8.70034e-10
-1.09285e-08
8.81847e-10
-1.18203e-08
8.91792e-10
-1.27204e-08
9.00129e-10
-1.36275e-08
9.07102e-10
-1.45404e-08
9.12947e-10
-1.54583e-08
9.17874e-10
-1.63804e-08
9.22073e-10
-1.73061e-08
9.25723e-10
-1.82351e-08
9.28986e-10
-1.91671e-08
9.32002e-10
-2.0102e-08
9.34896e-10
-2.10398e-08
9.37783e-10
-2.19805e-08
9.40762e-10
-2.29244e-08
9.43921e-10
-2.38718e-08
9.47338e-10
-2.48229e-08
9.5108e-10
-2.57781e-08
9.55201e-10
-2.67378e-08
9.59746e-10
-2.77026e-08
9.64752e-10
-2.86728e-08
9.70256e-10
-2.96491e-08
9.76288e-10
-3.0632e-08
9.82867e-10
-3.1622e-08
9.90008e-10
-3.26197e-08
9.97722e-10
-3.36257e-08
1.00602e-09
-3.46406e-08
1.0149e-09
-3.5665e-08
1.02436e-09
-3.66994e-08
1.0344e-09
-3.77444e-08
1.04501e-09
-3.88006e-08
1.05618e-09
-3.98685e-08
1.06789e-09
-4.09486e-08
1.08012e-09
-4.20414e-08
1.09285e-09
-4.31475e-08
1.10606e-09
-4.42672e-08
1.11971e-09
-4.5401e-08
1.13377e-09
-4.65492e-08
1.1482e-09
-4.77121e-08
1.16295e-09
-4.88901e-08
1.17798e-09
-5.00833e-08
1.19323e-09
-5.1292e-08
1.20865e-09
-5.25162e-08
1.22416e-09
-5.37559e-08
1.2397e-09
-5.5011e-08
1.25518e-09
-5.62816e-08
1.27053e-09
-5.75672e-08
1.28565e-09
-5.88677e-08
1.30043e-09
-6.01824e-08
1.31478e-09
-6.1511e-08
1.32858e-09
-6.28527e-08
1.3417e-09
-6.42067e-08
1.35402e-09
-6.55721e-08
1.36538e-09
-6.69478e-08
1.37564e-09
-6.83324e-08
1.38464e-09
-6.97246e-08
1.39222e-09
-7.11228e-08
1.39819e-09
-7.25252e-08
1.40237e-09
-7.39297e-08
1.40455e-09
-7.53343e-08
1.40454e-09
-7.67364e-08
1.40212e-09
-7.81335e-08
1.39707e-09
-7.95226e-08
1.38916e-09
-8.09008e-08
1.37815e-09
-8.22646e-08
1.36379e-09
-8.36104e-08
1.34585e-09
-8.49345e-08
1.32405e-09
-8.62326e-08
1.29816e-09
-8.75005e-08
1.2679e-09
-8.87336e-08
1.23302e-09
-8.99268e-08
1.19327e-09
-9.10752e-08
1.14839e-09
-9.21734e-08
1.09814e-09
-9.32156e-08
1.04229e-09
-9.41963e-08
9.80609e-10
-9.51092e-08
9.12895e-10
-9.59481e-08
8.38959e-10
-9.67067e-08
7.58637e-10
-9.73785e-08
6.7179e-10
-9.79568e-08
5.78311e-10
-9.8435e-08
4.78129e-10
-9.88062e-08
3.71212e-10
-9.90638e-08
2.57574e-10
-9.9201e-08
1.37275e-10
-9.92115e-08
1.04378e-11
-9.90887e-08
-1.22776e-10
-9.88266e-08
-2.62117e-10
-9.84193e-08
-4.07283e-10
-9.78614e-08
-5.57898e-10
-9.71479e-08
-7.1351e-10
-9.62743e-08
-8.73588e-10
-9.52368e-08
-1.03752e-09
-9.40322e-08
-1.20462e-09
-9.2658e-08
-1.37411e-09
-9.11129e-08
-1.54513e-09
-8.93962e-08
-1.71675e-09
-8.75082e-08
-1.88794e-09
-8.54506e-08
-2.05763e-09
-8.3226e-08
-2.22464e-09
-8.08382e-08
-2.38776e-09
-7.82925e-08
-2.54573e-09
-7.55952e-08
-2.69721e-09
-7.27544e-08
-2.84088e-09
-6.9779e-08
-2.97535e-09
-6.66797e-08
-3.09928e-09
-6.34684e-08
-3.2113e-09
-6.01584e-08
-3.31007e-09
-5.6764e-08
-3.39434e-09
-5.33012e-08
-3.46286e-09
-4.97867e-08
-3.5145e-09
-4.62384e-08
-3.54822e-09
-4.26754e-08
-3.56309e-09
-3.91171e-08
-3.5583e-09
-3.55838e-08
-3.5332e-09
-3.20966e-08
-3.48728e-09
-2.86764e-08
-3.4202e-09
-2.53446e-08
-3.33177e-09
-2.21226e-08
-3.22201e-09
-1.90315e-08
-3.0911e-09
-1.60921e-08
-2.93939e-09
-1.33247e-08
-2.76742e-09
-1.07487e-08
-2.57593e-09
-8.38292e-09
-2.36581e-09
-6.24471e-09
-2.1382e-09
-4.35027e-09
-1.89444e-09
-2.71408e-09
-1.63618e-09
-1.34861e-09
-1.36547e-09
-2.63637e-10
-1.08497e-09
5.34648e-10
-7.98284e-10
1.04525e-09
-5.10602e-10
1.27509e-09
-2.29832e-10
1.24374e-09
3.13462e-11
9.91677e-10
2.52067e-10
5.94699e-10
3.96984e-10
1.91347e-10
4.03358e-10
1.91353e-10
1.4149e-10
-1.93176e-10
4.07991e-10
-4.08059e-10
6.90173e-10
-4.49593e-10
9.05458e-10
-3.61131e-10
9.95269e-10
-1.85996e-10
9.21413e-10
4.323e-11
6.61234e-10
3.03306e-10
2.03481e-10
5.77809e-10
-4.549e-10
8.55366e-10
-1.3112e-09
1.1281e-09
-2.3588e-09
1.39067e-09
-3.58823e-09
1.63958e-09
-4.98836e-09
1.87259e-09
-6.54702e-09
2.08844e-09
-8.25152e-09
2.28655e-09
-1.00891e-08
2.46688e-09
-1.20471e-08
2.62978e-09
-1.41134e-08
2.77587e-09
-1.62764e-08
2.90599e-09
-1.8525e-08
3.02111e-09
-2.08492e-08
3.12231e-09
-2.32395e-08
3.21069e-09
-2.56872e-08
3.28741e-09
-2.81848e-08
3.3536e-09
-3.07251e-08
3.41038e-09
-3.33021e-08
3.45883e-09
-3.59103e-08
3.5e-09
-3.8545e-08
3.53486e-09
-4.12023e-08
3.56435e-09
-4.38787e-08
3.58934e-09
-4.65714e-08
3.61061e-09
-4.92782e-08
3.6289e-09
-5.19974e-08
3.64488e-09
-5.47276e-08
3.65918e-09
-5.74679e-08
3.67233e-09
-6.02179e-08
3.68483e-09
-6.29772e-08
3.69711e-09
-6.5746e-08
3.70957e-09
-6.85246e-08
3.72255e-09
-7.13136e-08
3.73635e-09
-7.41138e-08
3.75124e-09
-7.6926e-08
3.76744e-09
-7.97514e-08
3.78513e-09
-8.25912e-08
3.80449e-09
-8.54465e-08
3.82564e-09
-8.83189e-08
3.8487e-09
-9.12098e-08
3.87375e-09
-9.41207e-08
3.90086e-09
-9.7053e-08
3.93007e-09
-1.00008e-07
3.96142e-09
-1.02988e-07
3.99492e-09
-1.05995e-07
4.03056e-09
-1.09029e-07
4.06832e-09
-1.12092e-07
4.10818e-09
-1.15186e-07
4.15009e-09
-1.18312e-07
4.19397e-09
-1.21471e-07
4.23976e-09
-1.24666e-07
4.28737e-09
-1.27897e-07
4.33667e-09
-1.31164e-07
4.38756e-09
-1.3447e-07
4.43988e-09
-1.37816e-07
4.49349e-09
-1.41201e-07
4.54819e-09
-1.44627e-07
4.6038e-09
-1.48094e-07
4.6601e-09
-1.51602e-07
4.71685e-09
-1.55152e-07
4.77379e-09
-1.58743e-07
4.83063e-09
-1.62374e-07
4.88706e-09
-1.66047e-07
4.94274e-09
-1.69758e-07
4.99731e-09
-1.73508e-07
5.05038e-09
-1.77295e-07
5.10152e-09
-1.81117e-07
5.15028e-09
-1.84971e-07
5.19618e-09
-1.88856e-07
5.23871e-09
-1.92768e-07
5.27731e-09
-1.96703e-07
5.3114e-09
-2.00659e-07
5.34037e-09
-2.04631e-07
5.36357e-09
-2.08613e-07
5.38032e-09
-2.126e-07
5.38989e-09
-2.16587e-07
5.39153e-09
-2.20567e-07
5.38448e-09
-2.24533e-07
5.3679e-09
-2.28477e-07
5.34097e-09
-2.3239e-07
5.30281e-09
-2.36265e-07
5.25254e-09
-2.4009e-07
5.18923e-09
-2.43856e-07
5.11196e-09
-2.47552e-07
5.01979e-09
-2.51166e-07
4.91178e-09
-2.54685e-07
4.78696e-09
-2.58096e-07
4.6444e-09
-2.61386e-07
4.48316e-09
-2.6454e-07
4.30235e-09
-2.67543e-07
4.10107e-09
-2.70379e-07
3.87849e-09
-2.73032e-07
3.63383e-09
-2.75486e-07
3.36637e-09
-2.77722e-07
3.07546e-09
-2.79724e-07
2.76055e-09
-2.81474e-07
2.42119e-09
-2.82952e-07
2.05706e-09
-2.84142e-07
1.66796e-09
-2.85025e-07
1.25386e-09
-2.85582e-07
8.14894e-10
-2.85796e-07
3.51373e-10
-2.8565e-07
-1.36177e-10
-2.85125e-07
-6.4702e-10
-2.84207e-07
-1.18018e-09
-2.8288e-07
-1.73442e-09
-2.8113e-07
-2.30827e-09
-2.78943e-07
-2.89996e-09
-2.7631e-07
-3.50743e-09
-2.73219e-07
-4.12836e-09
-2.69663e-07
-4.7601e-09
-2.65638e-07
-5.39972e-09
-2.61139e-07
-6.04398e-09
-2.56166e-07
-6.68938e-09
-2.50722e-07
-7.3321e-09
-2.44812e-07
-7.9681e-09
-2.38443e-07
-8.59307e-09
-2.31628e-07
-9.2025e-09
-2.24382e-07
-9.79171e-09
-2.16724e-07
-1.03558e-08
-2.08675e-07
-1.089e-08
-2.00261e-07
-1.13891e-08
-1.91512e-07
-1.18482e-08
-1.82461e-07
-1.22623e-08
-1.73145e-07
-1.26267e-08
-1.63602e-07
-1.29365e-08
-1.53878e-07
-1.31875e-08
-1.44017e-07
-1.33755e-08
-1.34068e-07
-1.34966e-08
-1.24084e-07
-1.35475e-08
-1.14117e-07
-1.35254e-08
-1.04222e-07
-1.34279e-08
-9.44563e-08
-1.32531e-08
-8.48766e-08
-1.29999e-08
-7.55408e-08
-1.26676e-08
-6.65062e-08
-1.22566e-08
-5.783e-08
-1.17674e-08
-4.95677e-08
-1.12016e-08
-4.17736e-08
-1.05615e-08
-3.44995e-08
-9.85001e-09
-2.77944e-08
-9.07093e-09
-2.17037e-08
-8.22896e-09
-1.62683e-08
-7.32985e-09
-1.15237e-08
-6.3807e-09
-7.49883e-09
-5.39038e-09
-4.2135e-09
-4.37029e-09
-1.67621e-09
-3.33557e-09
1.20263e-10
-2.30707e-09
1.20502e-09
-1.31459e-09
1.63811e-09
-4.01748e-10
1.52405e-09
3.66127e-10
1.02945e-09
8.91573e-10
4.01747e-10
1.03105e-09
5.93102e-10
1.68679e-10
-3.61858e-10
4.52076e-10
-6.91451e-10
7.11692e-10
-7.09204e-10
8.4759e-10
-4.97018e-10
7.86461e-10
-1.24867e-10
4.77748e-10
3.51958e-10
-1.10507e-10
8.91546e-10
-9.95578e-10
1.4629e-09
-2.18369e-09
2.04348e-09
-3.67269e-09
2.61709e-09
-5.45436e-09
3.17234e-09
-7.51617e-09
3.70139e-09
-9.84261e-09
4.19905e-09
-1.24164e-08
4.66218e-09
-1.5219e-08
5.08915e-09
-1.82316e-08
5.4795e-09
-2.14354e-08
5.83362e-09
-2.48121e-08
6.15256e-09
-2.8344e-08
6.43786e-09
-3.20143e-08
6.69138e-09
-3.58072e-08
6.91524e-09
-3.97082e-08
7.11168e-09
-4.37038e-08
7.28303e-09
-4.77818e-08
7.43162e-09
-5.19313e-08
7.5598e-09
-5.61423e-08
7.66983e-09
-6.04062e-08
7.76389e-09
-6.47154e-08
7.84407e-09
-6.90633e-08
7.91233e-09
-7.34445e-08
7.97051e-09
-7.78542e-08
8.02035e-09
-8.22887e-08
8.06341e-09
-8.6745e-08
8.10116e-09
-9.12207e-08
8.13491e-09
-9.57143e-08
8.16586e-09
-1.00225e-07
8.1951e-09
-1.04751e-07
8.22359e-09
-1.09294e-07
8.25218e-09
-1.13853e-07
8.28165e-09
-1.18429e-07
8.31265e-09
-1.23024e-07
8.34578e-09
-1.27638e-07
8.38152e-09
-1.32273e-07
8.42031e-09
-1.36931e-07
8.46251e-09
-1.41614e-07
8.50844e-09
-1.46323e-07
8.55833e-09
-1.51062e-07
8.61239e-09
-1.55832e-07
8.67077e-09
-1.60635e-07
8.73358e-09
-1.65475e-07
8.80088e-09
-1.70353e-07
8.8727e-09
-1.75271e-07
8.94903e-09
-1.80233e-07
9.02983e-09
-1.85239e-07
9.11504e-09
-1.90294e-07
9.20453e-09
-1.95398e-07
9.29818e-09
-2.00554e-07
9.39579e-09
-2.05764e-07
9.49717e-09
-2.11029e-07
9.60207e-09
-2.16352e-07
9.71019e-09
-2.21733e-07
9.82123e-09
-2.27175e-07
9.93482e-09
-2.32677e-07
1.00506e-08
-2.38241e-07
1.0168e-08
-2.43868e-07
1.02867e-08
-2.49557e-07
1.0406e-08
-2.55309e-07
1.05255e-08
-2.61123e-07
1.06444e-08
-2.66998e-07
1.07621e-08
-2.72933e-07
1.08778e-08
-2.78926e-07
1.09906e-08
-2.84975e-07
1.10998e-08
-2.91078e-07
1.12044e-08
-2.97231e-07
1.13034e-08
-3.03431e-07
1.13957e-08
-3.09673e-07
1.14803e-08
-3.15951e-07
1.15558e-08
-3.22261e-07
1.1621e-08
-3.28595e-07
1.16745e-08
-3.34946e-07
1.17151e-08
-3.41307e-07
1.17411e-08
-3.47668e-07
1.1751e-08
-3.5402e-07
1.17431e-08
-3.60351e-07
1.17159e-08
-3.66651e-07
1.16675e-08
-3.72906e-07
1.15961e-08
-3.79103e-07
1.14999e-08
-3.85227e-07
1.13769e-08
-3.91263e-07
1.12253e-08
-3.97194e-07
1.1043e-08
-4.03002e-07
1.0828e-08
-4.08669e-07
1.05784e-08
-4.14174e-07
1.02921e-08
-4.19497e-07
9.9671e-09
-4.24615e-07
9.60156e-09
-4.29506e-07
9.19355e-09
-4.34147e-07
8.74124e-09
-4.38511e-07
8.24293e-09
-4.42574e-07
7.69702e-09
-4.4631e-07
7.10205e-09
-4.49691e-07
6.45676e-09
-4.52691e-07
5.76006e-09
-4.55281e-07
5.01112e-09
-4.57433e-07
4.20935e-09
-4.59119e-07
3.35448e-09
-4.60312e-07
2.44655e-09
-4.60983e-07
1.48599e-09
-4.61106e-07
4.73616e-10
-4.60652e-07
-5.8933e-10
-4.59598e-07
-1.70113e-09
-4.57919e-07
-2.85956e-09
-4.55591e-07
-4.06188e-09
-4.52595e-07
-5.30479e-09
-4.4891e-07
-6.58441e-09
-4.44522e-07
-7.89628e-09
-4.39415e-07
-9.2353e-09
-4.33579e-07
-1.05958e-08
-4.27007e-07
-1.19714e-08
-4.19696e-07
-1.33552e-08
-4.11646e-07
-1.47398e-08
-4.02861e-07
-1.61169e-08
-3.93351e-07
-1.7478e-08
-3.8313e-07
-1.88139e-08
-3.72218e-07
-2.01151e-08
-3.60638e-07
-2.13717e-08
-3.4842e-07
-2.25735e-08
-3.356e-07
-2.37101e-08
-3.22218e-07
-2.4771e-08
-3.0832e-07
-2.57456e-08
-2.93959e-07
-2.66236e-08
-2.79191e-07
-2.73949e-08
-2.64078e-07
-2.80496e-08
-2.48687e-07
-2.85786e-08
-2.33089e-07
-2.89732e-08
-2.1736e-07
-2.92254e-08
-2.01579e-07
-2.93284e-08
-1.85829e-07
-2.9276e-08
-1.70193e-07
-2.90635e-08
-1.54759e-07
-2.8687e-08
-1.39615e-07
-2.81441e-08
-1.24849e-07
-2.74339e-08
-1.10549e-07
-2.65567e-08
-9.68015e-08
-2.55144e-08
-8.36926e-08
-2.43105e-08
-7.13042e-08
-2.295e-08
-5.97145e-08
-2.14397e-08
-4.89973e-08
-1.97882e-08
-3.922e-08
-1.80063e-08
-3.04426e-08
-1.61072e-08
-2.27161e-08
-1.41072e-08
-1.608e-08
-1.20265e-08
-1.05593e-08
-9.89096e-09
-6.16102e-09
-7.73387e-09
-2.86832e-09
-5.59978e-09
-6.33486e-10
-3.54942e-09
6.32104e-10
-1.66733e-09
1.07078e-09
-7.25473e-11
8.93186e-10
1.06917e-09
3.95072e-10
1.52916e-09
9.88172e-10
1.48569e-10
-5.10427e-10
3.66345e-10
-9.09234e-10
5.02549e-10
-8.45406e-10
4.49152e-10
-4.43637e-10
1.26594e-10
1.97695e-10
-5.21235e-10
9.99784e-10
-1.53082e-09
1.90114e-09
-2.9228e-09
2.85488e-09
-4.70521e-09
3.82588e-09
-6.87626e-09
4.78815e-09
-9.42675e-09
5.72282e-09
-1.23419e-08
6.61658e-09
-1.56032e-08
7.46035e-09
-1.91894e-08
8.24835e-09
-2.30776e-08
8.97738e-09
-2.72443e-08
9.64617e-09
-3.16657e-08
1.0255e-08
-3.63183e-08
1.08052e-08
-4.11795e-08
1.12991e-08
-4.62277e-08
1.17395e-08
-5.14423e-08
1.21299e-08
-5.68043e-08
1.24737e-08
-6.2296e-08
1.27747e-08
-6.79013e-08
1.30369e-08
-7.36055e-08
1.32641e-08
-7.93956e-08
1.34599e-08
-8.52598e-08
1.36281e-08
-9.11879e-08
1.37722e-08
-9.7171e-08
1.38954e-08
-1.03201e-07
1.4001e-08
-1.09273e-07
1.40918e-08
-1.1538e-07
1.41705e-08
-1.21518e-07
1.42396e-08
-1.27685e-07
1.43014e-08
-1.33877e-07
1.43579e-08
-1.40093e-07
1.44111e-08
-1.46332e-07
1.44625e-08
-1.52593e-07
1.45137e-08
-1.58878e-07
1.4566e-08
-1.65186e-07
1.46206e-08
-1.71518e-07
1.46785e-08
-1.77877e-07
1.47405e-08
-1.84265e-07
1.48075e-08
-1.90682e-07
1.48801e-08
-1.97132e-07
1.49588e-08
-2.03618e-07
1.5044e-08
-2.10142e-07
1.51362e-08
-2.16707e-07
1.52356e-08
-2.23315e-07
1.53423e-08
-2.29971e-07
1.54565e-08
-2.36677e-07
1.55783e-08
-2.43435e-07
1.57076e-08
-2.5025e-07
1.58444e-08
-2.57124e-07
1.59886e-08
-2.64059e-07
1.61398e-08
-2.71059e-07
1.6298e-08
-2.78126e-07
1.64627e-08
-2.85262e-07
1.66336e-08
-2.9247e-07
1.68103e-08
-2.99752e-07
1.69922e-08
-3.0711e-07
1.71787e-08
-3.14544e-07
1.73694e-08
-3.22057e-07
1.75633e-08
-3.29649e-07
1.77597e-08
-3.3732e-07
1.79579e-08
-3.45071e-07
1.81567e-08
-3.529e-07
1.83552e-08
-3.60808e-07
1.85522e-08
-3.68793e-07
1.87466e-08
-3.76852e-07
1.8937e-08
-3.84983e-07
1.91219e-08
-3.93183e-07
1.92998e-08
-4.01448e-07
1.94692e-08
-4.09773e-07
1.96283e-08
-4.18152e-07
1.97751e-08
-4.2658e-07
1.99078e-08
-4.35048e-07
2.00242e-08
-4.43549e-07
2.01222e-08
-4.52074e-07
2.01993e-08
-4.60612e-07
2.02532e-08
-4.69152e-07
2.02813e-08
-4.77682e-07
2.0281e-08
-4.86189e-07
2.02493e-08
-4.94656e-07
2.01835e-08
-5.03069e-07
2.00805e-08
-5.11411e-07
1.99373e-08
-5.19661e-07
1.97507e-08
-5.27802e-07
1.95175e-08
-5.35811e-07
1.92344e-08
-5.43666e-07
1.8898e-08
-5.51343e-07
1.85049e-08
-5.58817e-07
1.8052e-08
-5.6606e-07
1.75357e-08
-5.73046e-07
1.69528e-08
-5.79744e-07
1.63001e-08
-5.86125e-07
1.55744e-08
-5.92157e-07
1.47729e-08
-5.97807e-07
1.38927e-08
-6.03041e-07
1.29312e-08
-6.07825e-07
1.18861e-08
-6.12124e-07
1.07554e-08
-6.15901e-07
9.5375e-09
-6.19121e-07
8.23104e-09
-6.21747e-07
6.83528e-09
-6.23742e-07
5.34992e-09
-6.25071e-07
3.77526e-09
-6.25697e-07
2.1122e-09
-6.25586e-07
3.62335e-10
-6.24703e-07
-1.47202e-09
-6.23017e-07
-3.38776e-09
-6.20495e-07
-5.38092e-09
-6.1711e-07
-7.44669e-09
-6.12836e-07
-9.57929e-09
-6.07648e-07
-1.1772e-08
-6.01528e-07
-1.40171e-08
-5.94457e-07
-1.63059e-08
-5.86424e-07
-1.86286e-08
-5.77421e-07
-2.09745e-08
-5.67444e-07
-2.33318e-08
-5.56496e-07
-2.56878e-08
-5.44585e-07
-2.80287e-08
-5.31722e-07
-3.03401e-08
-5.1793e-07
-3.26065e-08
-5.03233e-07
-3.48121e-08
-4.87665e-07
-3.694e-08
-4.71265e-07
-3.89733e-08
-4.5408e-07
-4.08946e-08
-4.36165e-07
-4.26862e-08
-4.1758e-07
-4.43308e-08
-3.98392e-07
-4.58109e-08
-3.78678e-07
-4.71096e-08
-3.58516e-07
-4.82109e-08
-3.37996e-07
-4.90991e-08
-3.17209e-07
-4.97599e-08
-2.96254e-07
-5.01803e-08
-2.75234e-07
-5.03486e-08
-2.54256e-07
-5.02548e-08
-2.33428e-07
-4.98909e-08
-2.12864e-07
-4.92508e-08
-1.92678e-07
-4.83305e-08
-1.72983e-07
-4.71287e-08
-1.53894e-07
-4.5646e-08
-1.35522e-07
-4.3886e-08
-1.17978e-07
-4.18549e-08
-1.01366e-07
-3.95617e-08
-8.57873e-08
-3.70184e-08
-7.13352e-08
-3.42403e-08
-5.80948e-08
-3.12466e-08
-4.61413e-08
-2.80608e-08
-3.55369e-08
-2.47115e-08
-2.63291e-08
-2.12344e-08
-1.85462e-08
-1.76739e-08
-1.21936e-08
-1.40865e-08
-7.24768e-09
-1.05456e-08
-3.64925e-09
-7.14785e-09
-1.29426e-09
-4.02233e-09
-2.3455e-11
-1.34335e-09
3.90252e-10
6.55473e-10
2.55253e-10
1.66416e-09
1.24342e-09
9.97759e-11
-6.10199e-10
1.91071e-10
-1.00053e-09
1.26484e-10
-7.80808e-10
-2.01734e-10
-1.15426e-10
-8.73373e-10
8.69328e-10
-1.94518e-09
2.07158e-09
-3.45455e-09
3.41049e-09
-5.42283e-09
4.82317e-09
-7.85833e-09
6.26139e-09
-1.07589e-08
7.68868e-09
-1.41141e-08
9.07803e-09
-1.79074e-08
1.04099e-08
-2.21177e-08
1.16706e-08
-2.67206e-08
1.28513e-08
-3.16899e-08
1.39467e-08
-3.69981e-08
1.49544e-08
-4.26175e-08
1.58743e-08
-4.85204e-08
1.67081e-08
-5.46801e-08
1.74588e-08
-6.10707e-08
1.81302e-08
-6.76678e-08
1.8727e-08
-7.44485e-08
1.92544e-08
-8.13915e-08
1.97177e-08
-8.84771e-08
2.01225e-08
-9.56875e-08
2.04745e-08
-1.03007e-07
2.07791e-08
-1.1042e-07
2.10416e-08
-1.17915e-07
2.12674e-08
-1.25481e-07
2.14613e-08
-1.33108e-07
2.16279e-08
-1.40788e-07
2.17717e-08
-1.48514e-07
2.18966e-08
-1.56281e-07
2.20064e-08
-1.64084e-07
2.21045e-08
-1.7192e-07
2.21941e-08
-1.79787e-07
2.2278e-08
-1.87683e-07
2.23587e-08
-1.95608e-07
2.24385e-08
-2.03562e-07
2.25195e-08
-2.11544e-07
2.26033e-08
-2.19558e-07
2.26917e-08
-2.27603e-07
2.2786e-08
-2.35683e-07
2.28872e-08
-2.43799e-07
2.29965e-08
-2.51955e-07
2.31147e-08
-2.60154e-07
2.32424e-08
-2.68398e-07
2.33803e-08
-2.76691e-07
2.35286e-08
-2.85036e-07
2.36878e-08
-2.93438e-07
2.38581e-08
-3.01899e-07
2.40394e-08
-3.10423e-07
2.42318e-08
-3.19014e-07
2.44351e-08
-3.27674e-07
2.46492e-08
-3.36408e-07
2.48738e-08
-3.45219e-07
2.51084e-08
-3.54108e-07
2.53526e-08
-3.63081e-07
2.56057e-08
-3.72137e-07
2.5867e-08
-3.81281e-07
2.61359e-08
-3.90514e-07
2.64113e-08
-3.99837e-07
2.66923e-08
-4.09251e-07
2.69778e-08
-4.18758e-07
2.72665e-08
-4.28357e-07
2.75571e-08
-4.38049e-07
2.78481e-08
-4.47831e-07
2.81379e-08
-4.57704e-07
2.84247e-08
-4.67664e-07
2.87066e-08
-4.77708e-07
2.89817e-08
-4.87834e-07
2.92476e-08
-4.98036e-07
2.95021e-08
-5.0831e-07
2.97427e-08
-5.18648e-07
2.99666e-08
-5.29044e-07
3.0171e-08
-5.39489e-07
3.0353e-08
-5.49974e-07
3.05093e-08
-5.60489e-07
3.06365e-08
-5.7102e-07
3.07311e-08
-5.81557e-07
3.07895e-08
-5.92083e-07
3.08077e-08
-6.02584e-07
3.07816e-08
-6.13042e-07
3.07072e-08
-6.23438e-07
3.058e-08
-6.33753e-07
3.03955e-08
-6.43965e-07
3.01492e-08
-6.54051e-07
2.98363e-08
-6.63985e-07
2.94519e-08
-6.73742e-07
2.89913e-08
-6.83293e-07
2.84494e-08
-6.9261e-07
2.78213e-08
-7.0166e-07
2.71021e-08
-7.10411e-07
2.62868e-08
-7.18829e-07
2.53706e-08
-7.26878e-07
2.43489e-08
-7.3452e-07
2.32171e-08
-7.41718e-07
2.19709e-08
-7.48432e-07
2.06063e-08
-7.5462e-07
1.91198e-08
-7.60242e-07
1.75079e-08
-7.65255e-07
1.5768e-08
-7.69615e-07
1.38977e-08
-7.73279e-07
1.18955e-08
-7.76205e-07
9.76045e-09
-7.78347e-07
7.49234e-09
-7.79664e-07
5.09188e-09
-7.80112e-07
2.56072e-09
-7.79651e-07
-9.85076e-11
-7.78241e-07
-2.88207e-09
-7.75844e-07
-5.78507e-09
-7.72424e-07
-8.80135e-09
-7.67947e-07
-1.19235e-08
-7.62383e-07
-1.51426e-08
-7.55707e-07
-1.84486e-08
-7.47894e-07
-2.18297e-08
-7.38927e-07
-2.52728e-08
-7.28793e-07
-2.87632e-08
-7.17482e-07
-3.22849e-08
-7.04994e-07
-3.58202e-08
-6.91332e-07
-3.93502e-08
-6.76506e-07
-4.28546e-08
-6.60534e-07
-4.63118e-08
-6.43441e-07
-4.9699e-08
-6.25261e-07
-5.29926e-08
-6.06033e-07
-5.61679e-08
-5.85806e-07
-5.91999e-08
-5.64638e-07
-6.20627e-08
-5.42594e-07
-6.47307e-08
-5.19747e-07
-6.71779e-08
-4.96178e-07
-6.93791e-08
-4.71979e-07
-7.13092e-08
-4.47245e-07
-7.29445e-08
-4.22082e-07
-7.42624e-08
-3.966e-07
-7.52416e-08
-3.70917e-07
-7.5863e-08
-3.45156e-07
-7.61096e-08
-3.19444e-07
-7.59668e-08
-2.93913e-07
-7.54227e-08
-2.68695e-07
-7.44685e-08
-2.43927e-07
-7.30987e-08
-2.19744e-07
-7.13112e-08
-1.96283e-07
-6.91075e-08
-1.73676e-07
-6.64932e-08
-1.52053e-07
-6.34779e-08
-1.31539e-07
-6.00755e-08
-1.12253e-07
-5.63046e-08
-9.4304e-08
-5.2189e-08
-7.77926e-08
-4.7758e-08
-6.28058e-08
-4.30476e-08
-4.94154e-08
-3.81019e-08
-3.76751e-08
-3.29746e-08
-2.76169e-08
-2.77321e-08
-1.92462e-08
-2.24572e-08
-1.25372e-08
-1.72546e-08
-7.42632e-09
-1.22588e-08
-3.80521e-09
-7.64343e-09
-1.51279e-09
-3.63577e-09
-3.26596e-10
-5.30725e-10
4.80169e-11
1.28954e-09
1.29144e-09
3.35661e-11
-6.43775e-10
-4.41911e-11
-9.2277e-10
-3.67264e-10
-4.57734e-10
-1.03627e-09
5.5357e-10
-2.12627e-09
1.95935e-09
-3.6909e-09
3.63622e-09
-5.76542e-09
5.48501e-09
-8.36964e-09
7.42739e-09
-1.15105e-08
9.40223e-09
-1.51844e-08
1.13626e-08
-1.93793e-08
1.3273e-08
-2.40767e-08
1.51073e-08
-2.92531e-08
1.6847e-08
-3.48816e-08
1.84798e-08
-4.09328e-08
1.99979e-08
-4.73762e-08
2.13977e-08
-5.41805e-08
2.26787e-08
-6.13149e-08
2.38425e-08
-6.87488e-08
2.48928e-08
-7.64532e-08
2.58346e-08
-8.44001e-08
2.66739e-08
-9.25633e-08
2.74175e-08
-1.00918e-07
2.80726e-08
-1.09442e-07
2.86467e-08
-1.18115e-07
2.91472e-08
-1.26918e-07
2.95816e-08
-1.35833e-07
2.99573e-08
-1.44847e-07
3.02812e-08
-1.53946e-07
3.05602e-08
-1.63119e-07
3.08007e-08
-1.72356e-07
3.10086e-08
-1.81649e-07
3.11895e-08
-1.90991e-07
3.13486e-08
-2.00377e-07
3.14908e-08
-2.09803e-07
3.16202e-08
-2.19266e-07
3.17409e-08
-2.28764e-07
3.18565e-08
-2.38296e-07
3.19702e-08
-2.47861e-07
3.20848e-08
-2.5746e-07
3.22027e-08
-2.67095e-07
3.23264e-08
-2.76767e-07
3.24576e-08
-2.86477e-07
3.2598e-08
-2.9623e-07
3.27491e-08
-3.06027e-07
3.29121e-08
-3.15873e-07
3.30879e-08
-3.2577e-07
3.32773e-08
-3.35722e-07
3.3481e-08
-3.45734e-07
3.36993e-08
-3.55808e-07
3.39325e-08
-3.6595e-07
3.41808e-08
-3.76162e-07
3.44441e-08
-3.86449e-07
3.47222e-08
-3.96815e-07
3.50149e-08
-4.07263e-07
3.53216e-08
-4.17796e-07
3.56419e-08
-4.28418e-07
3.59749e-08
-4.39133e-07
3.63199e-08
-4.49941e-07
3.66758e-08
-4.60847e-07
3.70415e-08
-4.71852e-07
3.74158e-08
-4.82956e-07
3.77971e-08
-4.94162e-07
3.81838e-08
-5.0547e-07
3.85742e-08
-5.16879e-07
3.89665e-08
-5.28389e-07
3.93583e-08
-5.39999e-07
3.97475e-08
-5.51706e-07
4.01315e-08
-5.63507e-07
4.05077e-08
-5.75398e-07
4.08731e-08
-5.87375e-07
4.12246e-08
-5.99432e-07
4.15589e-08
-6.11562e-07
4.18725e-08
-6.23757e-07
4.21616e-08
-6.36008e-07
4.24222e-08
-6.48305e-07
4.26499e-08
-6.60636e-07
4.28404e-08
-6.72989e-07
4.2989e-08
-6.85348e-07
4.30906e-08
-6.97699e-07
4.31401e-08
-7.10023e-07
4.31321e-08
-7.22303e-07
4.3061e-08
-7.34516e-07
4.29209e-08
-7.46642e-07
4.27058e-08
-7.58656e-07
4.24095e-08
-7.70532e-07
4.20257e-08
-7.82244e-07
4.15478e-08
-7.93761e-07
4.09692e-08
-8.05053e-07
4.02832e-08
-8.16087e-07
3.94831e-08
-8.26827e-07
3.85621e-08
-8.37239e-07
3.75134e-08
-8.47283e-07
3.63306e-08
-8.56919e-07
3.5007e-08
-8.66106e-07
3.35363e-08
-8.74802e-07
3.19126e-08
-8.82961e-07
3.01301e-08
-8.90538e-07
2.81835e-08
-8.97487e-07
2.6068e-08
-9.03758e-07
2.37795e-08
-9.09304e-07
2.13143e-08
-9.14076e-07
1.86697e-08
-9.18025e-07
1.58437e-08
-9.211e-07
1.28355e-08
-9.23252e-07
9.645e-09
-9.24434e-07
6.27367e-09
-9.24597e-07
2.72403e-09
-9.23696e-07
-9.99925e-10
-9.21685e-07
-4.89273e-09
-9.18523e-07
-8.9473e-09
-9.14169e-07
-1.31549e-08
-9.08588e-07
-1.7505e-08
-9.01745e-07
-2.19852e-08
-8.93613e-07
-2.65812e-08
-8.84166e-07
-3.12768e-08
-8.73385e-07
-3.60537e-08
-8.61256e-07
-4.08917e-08
-8.47773e-07
-4.57686e-08
-8.32933e-07
-5.06603e-08
-8.16742e-07
-5.55405e-08
-7.99215e-07
-6.03816e-08
-7.80373e-07
-6.5154e-08
-7.60245e-07
-6.98267e-08
-7.38871e-07
-7.43672e-08
-7.16297e-07
-7.87421e-08
-6.92579e-07
-8.29171e-08
-6.67785e-07
-8.68573e-08
-6.41988e-07
-9.05276e-08
-6.15273e-07
-9.38928e-08
-5.87733e-07
-9.69185e-08
-5.59472e-07
-9.95709e-08
-5.30599e-07
-1.01818e-07
-5.01233e-07
-1.03628e-07
-4.71502e-07
-1.04973e-07
-4.41538e-07
-1.05827e-07
-4.11482e-07
-1.06166e-07
-3.81477e-07
-1.05971e-07
-3.51673e-07
-1.05227e-07
-3.22222e-07
-1.0392e-07
-2.93277e-07
-1.02043e-07
-2.64993e-07
-9.9595e-08
-2.37524e-07
-9.6577e-08
-2.1102e-07
-9.29973e-08
-1.85628e-07
-8.88694e-08
-1.61491e-07
-8.42132e-08
-1.3874e-07
-7.90548e-08
-1.17502e-07
-7.34277e-08
-9.78864e-08
-6.73732e-08
-7.99925e-08
-6.09416e-08
-6.39003e-08
-5.4194e-08
-4.96703e-08
-4.72047e-08
-3.73388e-08
-4.00636e-08
-2.69143e-08
-3.28816e-08
-1.83732e-08
-2.57957e-08
-1.16545e-08
-1.89775e-08
-6.65469e-09
-1.26432e-08
-3.22275e-09
-7.06771e-09
-1.15487e-09
-2.59861e-09
-1.89553e-10
3.24226e-10
1.10189e-09
-4.31656e-11
-6.00597e-10
-3.1895e-10
-6.4699e-10
-9.42413e-10
1.65739e-10
-2.00213e-09
1.61329e-09
-3.56467e-09
3.52188e-09
-5.67739e-09
5.74894e-09
-8.37092e-09
8.17854e-09
-1.16615e-08
1.0718e-08
-1.55532e-08
1.32939e-08
-2.00399e-08
1.58493e-08
-2.51072e-08
1.83402e-08
-3.07342e-08
2.07343e-08
-3.6895e-08
2.30078e-08
-4.35601e-08
2.51449e-08
-5.06975e-08
2.71353e-08
-5.82737e-08
2.8974e-08
-6.62547e-08
3.06597e-08
-7.46065e-08
3.21943e-08
-8.32957e-08
3.3582e-08
-9.22902e-08
3.4829e-08
-1.01559e-07
3.59428e-08
-1.11073e-07
3.69317e-08
-1.20805e-07
3.78049e-08
-1.30731e-07
3.85718e-08
-1.40825e-07
3.9242e-08
-1.51069e-07
3.98252e-08
-1.61443e-07
4.03308e-08
-1.71929e-07
4.07677e-08
-1.82514e-07
4.11449e-08
-1.93184e-07
4.14705e-08
-2.03928e-07
4.17525e-08
-2.14736e-07
4.19981e-08
-2.25602e-07
4.22142e-08
-2.36518e-07
4.24069e-08
-2.4748e-07
4.2582e-08
-2.58483e-07
4.27448e-08
-2.69527e-07
4.28998e-08
-2.80608e-07
4.30515e-08
-2.91727e-07
4.32036e-08
-3.02883e-07
4.33593e-08
-3.14079e-07
4.35217e-08
-3.25315e-07
4.36934e-08
-3.36593e-07
4.38766e-08
-3.47917e-07
4.40731e-08
-3.5929e-07
4.42847e-08
-3.70714e-07
4.45125e-08
-3.82195e-07
4.47577e-08
-3.93735e-07
4.50211e-08
-4.05339e-07
4.53033e-08
-4.17011e-07
4.56045e-08
-4.28755e-07
4.5925e-08
-4.40576e-07
4.62647e-08
-4.52477e-07
4.66234e-08
-4.64463e-07
4.70007e-08
-4.76537e-07
4.73959e-08
-4.88704e-07
4.78083e-08
-5.00965e-07
4.82369e-08
-5.13326e-07
4.86805e-08
-5.25788e-07
4.91377e-08
-5.38353e-07
4.9607e-08
-5.51024e-07
5.00867e-08
-5.63802e-07
5.05747e-08
-5.76687e-07
5.1069e-08
-5.8968e-07
5.15671e-08
-6.0278e-07
5.20664e-08
-6.15986e-07
5.25641e-08
-6.29295e-07
5.3057e-08
-6.42705e-07
5.35418e-08
-6.56213e-07
5.40148e-08
-6.69812e-07
5.44722e-08
-6.83497e-07
5.49098e-08
-6.97261e-07
5.53232e-08
-7.11096e-07
5.57076e-08
-7.24993e-07
5.6058e-08
-7.3894e-07
5.6369e-08
-7.52925e-07
5.6635e-08
-7.66934e-07
5.68502e-08
-7.80953e-07
5.70081e-08
-7.94965e-07
5.71023e-08
-8.08951e-07
5.7126e-08
-8.22891e-07
5.7072e-08
-8.36763e-07
5.6933e-08
-8.50544e-07
5.67013e-08
-8.64207e-07
5.6369e-08
-8.77725e-07
5.5928e-08
-8.9107e-07
5.53701e-08
-9.04209e-07
5.46867e-08
-9.17109e-07
5.38693e-08
-9.29735e-07
5.29092e-08
-9.42049e-07
5.17977e-08
-9.54013e-07
5.05261e-08
-9.65586e-07
4.90858e-08
-9.76723e-07
4.74682e-08
-9.87382e-07
4.56652e-08
-9.97514e-07
4.36687e-08
-1.00707e-06
4.1471e-08
-1.01601e-06
3.90651e-08
-1.02427e-06
3.64443e-08
-1.0318e-06
3.36026e-08
-1.03856e-06
3.0535e-08
-1.04448e-06
2.72371e-08
-1.04952e-06
2.37056e-08
-1.05361e-06
1.99386e-08
-1.05671e-06
1.5935e-08
-1.05876e-06
1.16956e-08
-1.05971e-06
7.2223e-09
-1.05951e-06
2.51897e-09
-1.0581e-06
-2.40882e-09
-1.05544e-06
-7.55358e-09
-1.05148e-06
-1.29057e-08
-1.04618e-06
-1.84535e-08
-1.0395e-06
-2.41829e-08
-1.03141e-06
-3.00776e-08
-1.02187e-06
-3.61187e-08
-1.01086e-06
-4.22849e-08
-9.98364e-07
-4.85523e-08
-9.84361e-07
-5.48945e-08
-9.68848e-07
-6.12826e-08
-9.51823e-07
-6.76851e-08
-9.33295e-07
-7.40684e-08
-9.1328e-07
-8.03962e-08
-8.91804e-07
-8.66305e-08
-8.68899e-07
-9.27311e-08
-8.4461e-07
-9.86563e-08
-8.18989e-07
-1.04363e-07
-7.921e-07
-1.09807e-07
-7.64015e-07
-1.14942e-07
-7.34818e-07
-1.19725e-07
-7.04601e-07
-1.2411e-07
-6.73468e-07
-1.28052e-07
-6.41531e-07
-1.31507e-07
-6.08914e-07
-1.34435e-07
-5.75746e-07
-1.36796e-07
-5.42167e-07
-1.38552e-07
-5.08324e-07
-1.3967e-07
-4.7437e-07
-1.4012e-07
-4.40465e-07
-1.39877e-07
-4.06771e-07
-1.3892e-07
-3.73458e-07
-1.37234e-07
-3.40692e-07
-1.34809e-07
-3.08645e-07
-1.31642e-07
-2.77486e-07
-1.27737e-07
-2.4738e-07
-1.23103e-07
-2.18489e-07
-1.1776e-07
-1.90969e-07
-1.11733e-07
-1.64966e-07
-1.05058e-07
-1.40617e-07
-9.77766e-08
-1.18045e-07
-8.99451e-08
-9.73578e-08
-8.16289e-08
-7.86441e-08
-7.29078e-08
-6.19716e-08
-6.38771e-08
-4.73834e-08
-5.46518e-08
-3.4894e-08
-4.5371e-08
-2.44864e-08
-3.62034e-08
-1.61079e-08
-2.7356e-08
-9.66747e-09
-1.90837e-08
-5.0326e-09
-1.17026e-08
-2.0281e-09
-5.60312e-09
-4.36211e-10
-1.26766e-09
6.65678e-10
-1.26119e-10
-4.74487e-10
-6.19228e-10
-1.5388e-10
-1.57291e-09
1.11942e-09
-3.06053e-09
3.10091e-09
-5.1373e-09
5.59865e-09
-7.84189e-09
8.45353e-09
-1.11982e-08
1.15349e-08
-1.52172e-08
1.47369e-08
-1.98985e-08
1.79752e-08
-2.52325e-08
2.11832e-08
-3.12016e-08
2.43094e-08
-3.7782e-08
2.73147e-08
-4.49451e-08
3.0171e-08
-5.26588e-08
3.28585e-08
-6.08882e-08
3.53647e-08
-6.95975e-08
3.76832e-08
-7.87498e-08
3.98119e-08
-8.83084e-08
4.17529e-08
-9.82375e-08
4.35111e-08
-1.08502e-07
4.50936e-08
-1.19069e-07
4.65095e-08
-1.29906e-07
4.77691e-08
-1.40985e-07
4.88832e-08
-1.52277e-07
4.98636e-08
-1.63757e-07
5.07221e-08
-1.75402e-07
5.14704e-08
-1.87191e-07
5.21203e-08
-1.99107e-07
5.2683e-08
-2.11131e-07
5.31695e-08
-2.23251e-07
5.359e-08
-2.35453e-07
5.39545e-08
-2.47727e-07
5.4272e-08
-2.60064e-07
5.45512e-08
-2.72457e-07
5.47998e-08
-2.849e-07
5.50251e-08
-2.97389e-07
5.52337e-08
-3.0992e-07
5.54316e-08
-3.22493e-07
5.56242e-08
-3.35106e-07
5.58163e-08
-3.47759e-07
5.60122e-08
-3.60453e-07
5.62156e-08
-3.73189e-07
5.64298e-08
-3.8597e-07
5.66577e-08
-3.98799e-07
5.69018e-08
-4.11678e-07
5.7164e-08
-4.24612e-07
5.74461e-08
-4.37603e-07
5.77495e-08
-4.50657e-07
5.80751e-08
-4.63778e-07
5.84238e-08
-4.76969e-07
5.87959e-08
-4.90236e-07
5.91917e-08
-5.03582e-07
5.96112e-08
-5.17013e-07
6.00539e-08
-5.30532e-07