/*--------------------------------*- C++ -*----------------------------------*\
  =========                 |
  \\      /  F ield         | OpenFOAM: The Open Source CFD Toolbox
   \\    /   O peration     | Website:  https://openfoam.org
    \\  /    A nd           | Version:  7
     \\/     M anipulation  |
\*---------------------------------------------------------------------------*/
FoamFile
{
    version     2.0;
    format      ascii;
    class       volVectorField;
    location    "0.4375";
    object      U;
}
// * * * * * * * * * * * * * * * * * * * * * * * * * * * * * * * * * * * * * //

dimensions      [0 1 -1 0 0 0 0];

internalField   nonuniform List<vector> 
12800
(
(3.23753e-06 -3.29673e-06 0)
(1.82911e-05 -9.80169e-06 0)
(4.42659e-05 -1.20441e-05 0)
(7.06594e-05 -1.11169e-05 0)
(9.08094e-05 -8.44633e-06 0)
(0.000101393 -4.88845e-06 0)
(0.000100623 -9.43189e-07 0)
(8.7648e-05 3.09882e-06 0)
(6.22711e-05 7.06832e-06 0)
(2.46963e-05 1.08656e-05 0)
(-2.462e-05 1.44244e-05 0)
(-8.50433e-05 1.77308e-05 0)
(-0.000155825 2.07654e-05 0)
(-0.000236186 2.35236e-05 0)
(-0.000325316 2.60099e-05 0)
(-0.000422405 2.82325e-05 0)
(-0.000526664 3.02058e-05 0)
(-0.000637335 3.19452e-05 0)
(-0.000753701 3.34663e-05 0)
(-0.000875087 3.47875e-05 0)
(-0.00100087 3.59269e-05 0)
(-0.00113048 3.69016e-05 0)
(-0.0012634 3.7729e-05 0)
(-0.00139915 3.84259e-05 0)
(-0.00153733 3.90076e-05 0)
(-0.00167756 3.94898e-05 0)
(-0.00181952 3.98875e-05 0)
(-0.00196293 4.02132e-05 0)
(-0.00210756 4.04785e-05 0)
(-0.00225321 4.06948e-05 0)
(-0.00239971 4.08725e-05 0)
(-0.00254693 4.10205e-05 0)
(-0.00269477 4.11475e-05 0)
(-0.00284316 4.1261e-05 0)
(-0.00299205 4.13672e-05 0)
(-0.0031414 4.14716e-05 0)
(-0.00329122 4.15797e-05 0)
(-0.0034415 4.16959e-05 0)
(-0.00359226 4.18244e-05 0)
(-0.00374356 4.19684e-05 0)
(-0.00389542 4.21307e-05 0)
(-0.00404791 4.23138e-05 0)
(-0.00420109 4.25194e-05 0)
(-0.00435503 4.27491e-05 0)
(-0.00450981 4.30046e-05 0)
(-0.00466551 4.3287e-05 0)
(-0.00482222 4.35973e-05 0)
(-0.00498003 4.39357e-05 0)
(-0.00513903 4.4303e-05 0)
(-0.00529931 4.46994e-05 0)
(-0.00546096 4.51251e-05 0)
(-0.00562408 4.55796e-05 0)
(-0.00578876 4.60629e-05 0)
(-0.00595509 4.65747e-05 0)
(-0.00612316 4.71147e-05 0)
(-0.00629307 4.76821e-05 0)
(-0.00646489 4.82761e-05 0)
(-0.00663871 4.88956e-05 0)
(-0.00681461 4.95397e-05 0)
(-0.00699265 5.02071e-05 0)
(-0.00717292 5.08962e-05 0)
(-0.00735546 5.16054e-05 0)
(-0.00754034 5.23329e-05 0)
(-0.00772761 5.30768e-05 0)
(-0.0079173 5.38345e-05 0)
(-0.00810945 5.46035e-05 0)
(-0.00830407 5.5381e-05 0)
(-0.00850118 5.61638e-05 0)
(-0.00870078 5.69488e-05 0)
(-0.00890285 5.7732e-05 0)
(-0.00910735 5.85094e-05 0)
(-0.00931426 5.92765e-05 0)
(-0.00952349 6.00286e-05 0)
(-0.00973499 6.07605e-05 0)
(-0.00994864 6.14666e-05 0)
(-0.0101643 6.2141e-05 0)
(-0.0103819 6.27772e-05 0)
(-0.0106013 6.33683e-05 0)
(-0.0108221 6.3907e-05 0)
(-0.0110443 6.43855e-05 0)
(-0.0112676 6.47956e-05 0)
(-0.0114918 6.51285e-05 0)
(-0.0117164 6.53749e-05 0)
(-0.0119412 6.55252e-05 0)
(-0.0121659 6.55693e-05 0)
(-0.0123899 6.54963e-05 0)
(-0.0126129 6.52954e-05 0)
(-0.0128344 6.49551e-05 0)
(-0.0130539 6.44634e-05 0)
(-0.0132708 6.38083e-05 0)
(-0.0134846 6.29773e-05 0)
(-0.0136945 6.19575e-05 0)
(-0.0139 6.07361e-05 0)
(-0.0141002 5.93002e-05 0)
(-0.0142945 5.76368e-05 0)
(-0.0144821 5.5733e-05 0)
(-0.014662 5.35762e-05 0)
(-0.0148335 5.1154e-05 0)
(-0.0149955 4.84546e-05 0)
(-0.0151472 4.54668e-05 0)
(-0.0152876 4.21803e-05 0)
(-0.0154157 3.85856e-05 0)
(-0.0155304 3.46747e-05 0)
(-0.0156306 3.04406e-05 0)
(-0.0157154 2.58782e-05 0)
(-0.0157836 2.09842e-05 0)
(-0.0158341 1.57574e-05 0)
(-0.015866 1.01991e-05 0)
(-0.015878 4.31288e-06 0)
(-0.0158693 -1.89413e-06 0)
(-0.0158387 -8.41279e-06 0)
(-0.0157854 -1.523e-05 0)
(-0.0157083 -2.23289e-05 0)
(-0.0156068 -2.96893e-05 0)
(-0.01548 -3.72868e-05 0)
(-0.0153272 -4.5093e-05 0)
(-0.0151479 -5.30754e-05 0)
(-0.0149417 -6.1197e-05 0)
(-0.0147082 -6.94168e-05 0)
(-0.0144473 -7.76894e-05 0)
(-0.0141588 -8.59653e-05 0)
(-0.0138431 -9.41911e-05 0)
(-0.0135004 -0.00010231 0)
(-0.0131312 -0.000110261 0)
(-0.0127363 -0.000117982 0)
(-0.0123166 -0.000125406 0)
(-0.0118732 -0.000132467 0)
(-0.0114075 -0.000139095 0)
(-0.0109211 -0.000145222 0)
(-0.0104158 -0.00015078 0)
(-0.00989357 -0.0001557 0)
(-0.00935665 -0.000159918 0)
(-0.00880745 -0.000163371 0)
(-0.00824861 -0.000166002 0)
(-0.00768289 -0.000167757 0)
(-0.00711326 -0.000168587 0)
(-0.00654279 -0.000168453 0)
(-0.0059747 -0.000167318 0)
(-0.00541227 -0.000165158 0)
(-0.00485887 -0.000161951 0)
(-0.00431791 -0.00015769 0)
(-0.00379281 -0.00015237 0)
(-0.00328697 -0.000145998 0)
(-0.00280376 -0.000138589 0)
(-0.00234648 -0.000130164 0)
(-0.0019183 -0.000120753 0)
(-0.00152229 -0.000110391 0)
(-0.00116136 -9.91206e-05 0)
(-0.000838192 -8.69931e-05 0)
(-0.000555267 -7.40673e-05 0)
(-0.00031476 -6.04159e-05 0)
(-0.000118479 -4.61346e-05 0)
(3.22448e-05 -3.1362e-05 0)
(0.00013676 -1.63164e-05 0)
(0.000195422 -1.37728e-06 0)
(0.000210154 1.27575e-05 0)
(0.000185303 2.48034e-05 0)
(0.000129522 3.22861e-05 0)
(6.15805e-05 3.05987e-05 0)
(1.39133e-05 1.39351e-05 0)
(9.73387e-06 -1.82825e-05 0)
(4.18924e-05 -4.19052e-05 0)
(8.86774e-05 -4.81286e-05 0)
(0.000131474 -4.12913e-05 0)
(0.000157746 -2.61512e-05 0)
(0.000160154 -6.0945e-06 0)
(0.000134074 1.66009e-05 0)
(7.69247e-05 4.04188e-05 0)
(-1.2352e-05 6.43397e-05 0)
(-0.000133699 8.76951e-05 0)
(-0.000286313 0.000110036 0)
(-0.000468866 0.000131105 0)
(-0.000679676 0.000150728 0)
(-0.000916856 0.000168816 0)
(-0.0011784 0.000185342 0)
(-0.00146226 0.000200316 0)
(-0.00176639 0.000213785 0)
(-0.0020888 0.00022581 0)
(-0.00242758 0.000236473 0)
(-0.00278092 0.000245864 0)
(-0.00314713 0.000254081 0)
(-0.00352464 0.000261221 0)
(-0.003912 0.000267387 0)
(-0.00430791 0.000272677 0)
(-0.0047112 0.000277186 0)
(-0.00512082 0.00028101 0)
(-0.00553583 0.000284237 0)
(-0.00595544 0.00028695 0)
(-0.00637894 0.000289228 0)
(-0.00680576 0.000291143 0)
(-0.00723539 0.000292763 0)
(-0.00766743 0.000294147 0)
(-0.00810158 0.000295353 0)
(-0.00853757 0.00029643 0)
(-0.00897524 0.000297425 0)
(-0.00941448 0.000298377 0)
(-0.00985522 0.000299322 0)
(-0.0102975 0.000300293 0)
(-0.0107412 0.000301316 0)
(-0.0111866 0.000302418 0)
(-0.0116337 0.000303618 0)
(-0.0120827 0.000304935 0)
(-0.0125337 0.000306384 0)
(-0.0129868 0.000307977 0)
(-0.0134424 0.000309726 0)
(-0.0139005 0.000311639 0)
(-0.0143615 0.000313723 0)
(-0.0148256 0.000315983 0)
(-0.015293 0.000318424 0)
(-0.015764 0.000321046 0)
(-0.0162388 0.000323852 0)
(-0.0167176 0.00032684 0)
(-0.0172007 0.000330009 0)
(-0.0176885 0.000333358 0)
(-0.018181 0.000336881 0)
(-0.0186785 0.000340574 0)
(-0.0191813 0.000344431 0)
(-0.0196896 0.000348444 0)
(-0.0202036 0.000352606 0)
(-0.0207234 0.000356905 0)
(-0.0212493 0.000361331 0)
(-0.0217814 0.000365871 0)
(-0.0223198 0.000370512 0)
(-0.0228646 0.000375237 0)
(-0.023416 0.000380029 0)
(-0.023974 0.000384869 0)
(-0.0245387 0.000389736 0)
(-0.0251099 0.000394607 0)
(-0.0256878 0.000399457 0)
(-0.0262721 0.000404259 0)
(-0.0268629 0.000408983 0)
(-0.0274599 0.000413597 0)
(-0.0280629 0.000418068 0)
(-0.0286716 0.000422358 0)
(-0.0292858 0.000426428 0)
(-0.0299051 0.000430236 0)
(-0.0305289 0.000433737 0)
(-0.0311569 0.000436883 0)
(-0.0317884 0.000439624 0)
(-0.0324227 0.000441905 0)
(-0.0330592 0.000443672 0)
(-0.033697 0.000444863 0)
(-0.0343352 0.000445418 0)
(-0.0349728 0.00044527 0)
(-0.0356088 0.000444353 0)
(-0.0362419 0.000442596 0)
(-0.0368708 0.000439926 0)
(-0.0374942 0.000436268 0)
(-0.0381106 0.000431546 0)
(-0.0387184 0.000425681 0)
(-0.0393158 0.000418594 0)
(-0.039901 0.000410203 0)
(-0.0404721 0.000400428 0)
(-0.0410271 0.000389187 0)
(-0.0415637 0.000376402 0)
(-0.0420798 0.000361994 0)
(-0.042573 0.000345886 0)
(-0.0430407 0.000328005 0)
(-0.0434805 0.000308282 0)
(-0.0438897 0.000286653 0)
(-0.0442656 0.000263061 0)
(-0.0446054 0.000237454 0)
(-0.0449062 0.000209792 0)
(-0.0451652 0.000180041 0)
(-0.0453794 0.000148182 0)
(-0.0455459 0.000114205 0)
(-0.0456618 7.81172e-05 0)
(-0.0457242 3.99398e-05 0)
(-0.0457302 -2.88812e-07 0)
(-0.0456772 -4.25111e-05 0)
(-0.0455624 -8.66506e-05 0)
(-0.0453834 -0.000132609 0)
(-0.0451377 -0.000180266 0)
(-0.0448232 -0.000229478 0)
(-0.044438 -0.000280075 0)
(-0.0439804 -0.000331866 0)
(-0.0434489 -0.000384629 0)
(-0.0428426 -0.000438121 0)
(-0.0421607 -0.00049207 0)
(-0.0414029 -0.000546182 0)
(-0.0405694 -0.000600136 0)
(-0.0396608 -0.000653589 0)
(-0.0386781 -0.000706177 0)
(-0.0376229 -0.000757517 0)
(-0.0364974 -0.00080721 0)
(-0.0353042 -0.000854844 0)
(-0.0340466 -0.000899998 0)
(-0.0327285 -0.000942242 0)
(-0.0313543 -0.000981151 0)
(-0.0299289 -0.0010163 0)
(-0.028458 -0.00104727 0)
(-0.0269477 -0.00107367 0)
(-0.0254046 -0.00109511 0)
(-0.0238359 -0.00111124 0)
(-0.0222492 -0.00112173 0)
(-0.0206525 -0.00112629 0)
(-0.0190543 -0.00112467 0)
(-0.0174632 -0.00111667 0)
(-0.0158881 -0.00110213 0)
(-0.0143382 -0.00108093 0)
(-0.0128227 -0.00105304 0)
(-0.0113509 -0.00101845 0)
(-0.00993181 -0.000977223 0)
(-0.00857458 -0.000929472 0)
(-0.00728802 -0.000875375 0)
(-0.0060806 -0.000815166 0)
(-0.00496044 -0.000749141 0)
(-0.0039351 -0.000677666 0)
(-0.00301153 -0.000601186 0)
(-0.00219591 -0.000520247 0)
(-0.00149343 -0.000435533 0)
(-0.000908092 -0.000347931 0)
(-0.000442289 -0.000258645 0)
(-9.6311e-05 -0.000169384 0)
(0.000132474 -8.27037e-05 0)
(0.000250821 -2.56262e-06 0)
(0.000271089 6.47765e-05 0)
(0.000213737 0.000109272 0)
(0.000114824 0.000115081 0)
(3.04119e-05 6.14597e-05 0)
(1.21267e-05 -4.43531e-05 0)
(4.84476e-05 -8.87547e-05 0)
(9.57243e-05 -9.52999e-05 0)
(0.000131168 -7.37186e-05 0)
(0.00013961 -3.29243e-05 0)
(0.000111585 2.01555e-05 0)
(4.07753e-05 8.04229e-05 0)
(-7.66361e-05 0.000144181 0)
(-0.000242416 0.00020882 0)
(-0.00045679 0.000272502 0)
(-0.000718851 0.000333957 0)
(-0.00102688 0.00039234 0)
(-0.00137858 0.000447101 0)
(-0.0017713 0.000497921 0)
(-0.00220214 0.000544644 0)
(-0.0026681 0.000587245 0)
(-0.00316614 0.000625792 0)
(-0.0036933 0.000660417 0)
(-0.00424666 0.000691306 0)
(-0.00482347 0.000718681 0)
(-0.00542113 0.000742783 0)
(-0.0060372 0.000763873 0)
(-0.00666943 0.000782212 0)
(-0.00731578 0.000798064 0)
(-0.0079744 0.000811691 0)
(-0.0086436 0.000823347 0)
(-0.00932191 0.000833273 0)
(-0.010008 0.0008417 0)
(-0.0107009 0.000848846 0)
(-0.0113994 0.000854914 0)
(-0.0121028 0.000860093 0)
(-0.0128105 0.000864555 0)
(-0.0135219 0.000868459 0)
(-0.0142365 0.000871951 0)
(-0.0149541 0.000875159 0)
(-0.0156744 0.000878201 0)
(-0.0163974 0.000881181 0)
(-0.0171229 0.000884192 0)
(-0.017851 0.000887316 0)
(-0.0185818 0.000890625 0)
(-0.0193155 0.000894181 0)
(-0.0200521 0.000898037 0)
(-0.020792 0.00090224 0)
(-0.0215354 0.000906828 0)
(-0.0222825 0.000911834 0)
(-0.0230338 0.000917284 0)
(-0.0237896 0.000923199 0)
(-0.0245502 0.000929595 0)
(-0.025316 0.000936484 0)
(-0.0260873 0.000943872 0)
(-0.0268646 0.000951762 0)
(-0.0276482 0.000960154 0)
(-0.0284385 0.000969043 0)
(-0.0292359 0.000978422 0)
(-0.0300407 0.000988279 0)
(-0.0308534 0.000998599 0)
(-0.0316741 0.00100936 0)
(-0.0325033 0.00102055 0)
(-0.0333412 0.00103213 0)
(-0.0341882 0.00104408 0)
(-0.0350445 0.00105636 0)
(-0.0359103 0.00106893 0)
(-0.0367857 0.00108176 0)
(-0.037671 0.00109479 0)
(-0.0385663 0.00110798 0)
(-0.0394715 0.00112126 0)
(-0.0403868 0.00113457 0)
(-0.0413121 0.00114784 0)
(-0.0422472 0.00116101 0)
(-0.0431921 0.00117399 0)
(-0.0441464 0.00118669 0)
(-0.04511 0.00119902 0)
(-0.0460823 0.00121087 0)
(-0.0470629 0.00122215 0)
(-0.0480513 0.00123274 0)
(-0.0490468 0.00124251 0)
(-0.0500486 0.00125133 0)
(-0.0510559 0.00125907 0)
(-0.0520676 0.00126558 0)
(-0.0530828 0.00127071 0)
(-0.0541001 0.00127429 0)
(-0.0551182 0.00127615 0)
(-0.0561357 0.00127612 0)
(-0.0571507 0.00127401 0)
(-0.0581617 0.00126964 0)
(-0.0591666 0.0012628 0)
(-0.0601633 0.00125328 0)
(-0.0611497 0.00124089 0)
(-0.0621231 0.0012254 0)
(-0.0630812 0.00120659 0)
(-0.0640211 0.00118425 0)
(-0.0649398 0.00115815 0)
(-0.0658344 0.00112808 0)
(-0.0667014 0.0010938 0)
(-0.0675376 0.00105511 0)
(-0.0683393 0.00101179 0)
(-0.0691028 0.000963632 0)
(-0.0698241 0.000910451 0)
(-0.0704994 0.000852062 0)
(-0.0711243 0.000788298 0)
(-0.0716948 0.000719012 0)
(-0.0722063 0.000644078 0)
(-0.0726546 0.000563396 0)
(-0.0730351 0.000476893 0)
(-0.0733433 0.000384529 0)
(-0.0735747 0.000286301 0)
(-0.0737249 0.000182246 0)
(-0.0737894 7.24421e-05 0)
(-0.073764 -4.29814e-05 0)
(-0.0736444 -0.000163845 0)
(-0.0734266 -0.000289915 0)
(-0.0731069 -0.000420897 0)
(-0.0726818 -0.000556438 0)
(-0.072148 -0.000696118 0)
(-0.0715027 -0.000839451 0)
(-0.0707435 -0.000985885 0)
(-0.0698685 -0.0011348 0)
(-0.0688761 -0.00128549 0)
(-0.0677655 -0.00143721 0)
(-0.0665365 -0.00158913 0)
(-0.0651894 -0.00174035 0)
(-0.0637253 -0.00188993 0)
(-0.0621462 -0.00203685 0)
(-0.0604547 -0.00218005 0)
(-0.0586542 -0.00231845 0)
(-0.0567491 -0.0024509 0)
(-0.0547445 -0.00257625 0)
(-0.0526467 -0.00269333 0)
(-0.0504624 -0.00280097 0)
(-0.0481995 -0.00289803 0)
(-0.0458668 -0.00298336 0)
(-0.0434738 -0.00305588 0)
(-0.0410307 -0.00311456 0)
(-0.0385487 -0.00315843 0)
(-0.0360395 -0.00318662 0)
(-0.0335156 -0.00319833 0)
(-0.0309898 -0.00319289 0)
(-0.0284755 -0.00316976 0)
(-0.0259865 -0.00312852 0)
(-0.0235368 -0.00306889 0)
(-0.0211405 -0.00299074 0)
(-0.0188117 -0.00289412 0)
(-0.0165645 -0.00277921 0)
(-0.0144127 -0.00264637 0)
(-0.0123698 -0.00249615 0)
(-0.0104486 -0.00232925 0)
(-0.00866123 -0.0021466 0)
(-0.00701916 -0.00194933 0)
(-0.0055326 -0.00173884 0)
(-0.00421052 -0.00151684 0)
(-0.00306024 -0.0012855 0)
(-0.00208707 -0.00104758 0)
(-0.00129374 -0.000806701 0)
(-0.000679706 -0.000567833 0)
(-0.000240125 -0.00033791 0)
(3.55172e-05 -0.00012688 0)
(0.000164901 5.07986e-05 0)
(0.000175014 0.000174255 0)
(0.00010912 0.000213884 0)
(3.19723e-05 0.000128986 0)
(1.13486e-05 -7.10419e-05 0)
(4.19934e-05 -0.000131882 0)
(7.46319e-05 -0.000130865 0)
(8.53366e-05 -8.4544e-05 0)
(5.79678e-05 -6.39843e-06 0)
(-1.78796e-05 9.28645e-05 0)
(-0.000149365 0.000204982 0)
(-0.000340934 0.000323753 0)
(-0.00059477 0.000444603 0)
(-0.000911271 0.000564197 0)
(-0.00128947 0.000680158 0)
(-0.00172739 0.00079083 0)
(-0.0022223 0.000895104 0)
(-0.00277097 0.000992291 0)
(-0.00336984 0.00108202 0)
(-0.00401516 0.00116418 0)
(-0.00470314 0.00123881 0)
(-0.00542997 0.00130613 0)
(-0.00619196 0.00136644 0)
(-0.00698555 0.0014201 0)
(-0.00780735 0.00146756 0)
(-0.00865421 0.00150927 0)
(-0.00952318 0.00154571 0)
(-0.0104115 0.00157736 0)
(-0.0113169 0.00160472 0)
(-0.0122369 0.00162824 0)
(-0.0131697 0.00164839 0)
(-0.0141134 0.0016656 0)
(-0.0150667 0.00168029 0)
(-0.016028 0.00169283 0)
(-0.0169964 0.00170359 0)
(-0.0179709 0.0017129 0)
(-0.0189507 0.00172107 0)
(-0.0199352 0.00172837 0)
(-0.020924 0.00173506 0)
(-0.0219166 0.00174137 0)
(-0.0229131 0.0017475 0)
(-0.0239131 0.00175364 0)
(-0.0249167 0.00175993 0)
(-0.0259241 0.00176654 0)
(-0.0269353 0.00177357 0)
(-0.0279506 0.00178114 0)
(-0.0289702 0.00178934 0)
(-0.0299945 0.00179824 0)
(-0.0310238 0.00180792 0)
(-0.0320586 0.00181842 0)
(-0.0330992 0.00182978 0)
(-0.0341462 0.00184204 0)
(-0.0352 0.00185523 0)
(-0.036261 0.00186935 0)
(-0.0373298 0.00188441 0)
(-0.0384068 0.00190042 0)
(-0.0394926 0.00191736 0)
(-0.0405875 0.00193521 0)
(-0.0416921 0.00195396 0)
(-0.0428068 0.00197357 0)
(-0.043932 0.001994 0)
(-0.0450682 0.00201521 0)
(-0.0462157 0.00203716 0)
(-0.0473748 0.00205976 0)
(-0.0485459 0.00208297 0)
(-0.0497292 0.0021067 0)
(-0.050925 0.00213086 0)
(-0.0521333 0.00215537 0)
(-0.0533543 0.00218011 0)
(-0.0545881 0.00220498 0)
(-0.0558346 0.00222984 0)
(-0.0570936 0.00225456 0)
(-0.0583651 0.002279 0)
(-0.0596487 0.00230299 0)
(-0.060944 0.00232636 0)
(-0.0622507 0.00234893 0)
(-0.063568 0.0023705 0)
(-0.0648954 0.00239085 0)
(-0.066232 0.00240976 0)
(-0.0675768 0.002427 0)
(-0.0689288 0.0024423 0)
(-0.0702867 0.00245539 0)
(-0.0716492 0.002466 0)
(-0.0730146 0.00247381 0)
(-0.0743814 0.00247853 0)
(-0.0757475 0.00247982 0)
(-0.077111 0.00247733 0)
(-0.0784695 0.00247072 0)
(-0.0798206 0.00245961 0)
(-0.0811617 0.00244363 0)
(-0.0824898 0.00242238 0)
(-0.0838019 0.00239546 0)
(-0.0850948 0.00236247 0)
(-0.0863648 0.00232299 0)
(-0.0876084 0.00227661 0)
(-0.0888214 0.00222291 0)
(-0.0899999 0.00216146 0)
(-0.0911394 0.00209187 0)
(-0.0922353 0.00201371 0)
(-0.0932829 0.00192662 0)
(-0.0942772 0.0018302 0)
(-0.095213 0.0017241 0)
(-0.0960851 0.001608 0)
(-0.0968879 0.0014816 0)
(-0.097616 0.00134463 0)
(-0.0982635 0.00119689 0)
(-0.0988247 0.00103819 0)
(-0.0992938 0.000868442 0)
(-0.099665 0.000687579 0)
(-0.0999323 0.000495627 0)
(-0.10009 0.000292683 0)
(-0.100133 7.89282e-05 0)
(-0.100054 -0.000145366 0)
(-0.0998502 -0.000379829 0)
(-0.0995147 -0.000623987 0)
(-0.0990433 -0.000877257 0)
(-0.0984315 -0.00113894 0)
(-0.0976754 -0.00140821 0)
(-0.0967715 -0.00168413 0)
(-0.0957167 -0.00196563 0)
(-0.0945088 -0.0022515 0)
(-0.0931462 -0.00254042 0)
(-0.0916278 -0.00283094 0)
(-0.0899536 -0.00312148 0)
(-0.0881244 -0.00341035 0)
(-0.0861418 -0.00369574 0)
(-0.0840086 -0.00397574 0)
(-0.0817282 -0.00424837 0)
(-0.0793055 -0.00451155 0)
(-0.0767464 -0.00476315 0)
(-0.0740576 -0.00500101 0)
(-0.0712474 -0.00522294 0)
(-0.0683248 -0.00542674 0)
(-0.0653002 -0.00561027 0)
(-0.0621849 -0.00577141 0)
(-0.0589915 -0.00590813 0)
(-0.0557334 -0.0060185 0)
(-0.052425 -0.00610072 0)
(-0.0490817 -0.00615316 0)
(-0.0457196 -0.00617437 0)
(-0.0423554 -0.00616308 0)
(-0.0390065 -0.00611829 0)
(-0.0356907 -0.00603923 0)
(-0.0324262 -0.00592541 0)
(-0.0292312 -0.00577662 0)
(-0.026124 -0.00559295 0)
(-0.0231227 -0.00537481 0)
(-0.0202452 -0.00512295 0)
(-0.0175086 -0.00483843 0)
(-0.0149295 -0.00452272 0)
(-0.0125235 -0.00417767 0)
(-0.0103049 -0.00380557 0)
(-0.0082867 -0.00340925 0)
(-0.00647988 -0.00299221 0)
(-0.0048934 -0.00255877 0)
(-0.00353346 -0.0021144 0)
(-0.00240295 -0.00166613 0)
(-0.00150067 -0.00122324 0)
(-0.000820288 -0.000798195 0)
(-0.000349105 -0.000408023 0)
(-6.6661e-05 -7.62085e-05 0)
(5.69871e-05 0.000165127 0)
(6.64083e-05 0.000272533 0)
(2.46512e-05 0.000184626 0)
(8.80026e-06 -9.1745e-05 0)
(2.70232e-05 -0.000158605 0)
(3.36177e-05 -0.000139264 0)
(6.15814e-06 -5.70414e-05 0)
(-7.1106e-05 7.00074e-05 0)
(-0.000208751 0.000227375 0)
(-0.000414098 0.000403647 0)
(-0.000691734 0.000590033 0)
(-0.00104393 0.000779866 0)
(-0.00147107 0.000968164 0)
(-0.00197207 0.00115128 0)
(-0.0025447 0.00132659 0)
(-0.00318589 0.00149231 0)
(-0.00389196 0.00164728 0)
(-0.00465881 0.00179084 0)
(-0.00548211 0.00192269 0)
(-0.00635741 0.00204288 0)
(-0.00728027 0.00215164 0)
(-0.00824633 0.00224939 0)
(-0.00925135 0.00233668 0)
(-0.0102913 0.00241413 0)
(-0.0113624 0.00248245 0)
(-0.0124611 0.00254237 0)
(-0.0135842 0.00259462 0)
(-0.0147285 0.00263996 0)
(-0.0158915 0.00267911 0)
(-0.0170706 0.0027128 0)
(-0.0182638 0.0027417 0)
(-0.0194691 0.00276647 0)
(-0.0206849 0.00278771 0)
(-0.0219097 0.00280601 0)
(-0.0231424 0.00282189 0)
(-0.0243821 0.00283585 0)
(-0.0256278 0.00284832 0)
(-0.0268791 0.00285973 0)
(-0.0281354 0.00287043 0)
(-0.0293965 0.00288076 0)
(-0.0306622 0.00289102 0)
(-0.0319324 0.00290147 0)
(-0.0332073 0.00291233 0)
(-0.0344869 0.00292382 0)
(-0.0357715 0.00293612 0)
(-0.0370615 0.00294936 0)
(-0.038357 0.00296368 0)
(-0.0396587 0.00297919 0)
(-0.0409669 0.00299597 0)
(-0.0422822 0.0030141 0)
(-0.043605 0.00303364 0)
(-0.044936 0.00305461 0)
(-0.0462756 0.00307704 0)
(-0.0476245 0.00310095 0)
(-0.0489832 0.00312633 0)
(-0.0503522 0.00315317 0)
(-0.0517322 0.00318144 0)
(-0.0531236 0.0032111 0)
(-0.0545271 0.0032421 0)
(-0.055943 0.00327438 0)
(-0.0573718 0.00330786 0)
(-0.058814 0.00334245 0)
(-0.06027 0.00337805 0)
(-0.06174 0.00341455 0)
(-0.0632244 0.00345182 0)
(-0.0647234 0.00348972 0)
(-0.0662371 0.00352808 0)
(-0.0677656 0.00356674 0)
(-0.0693088 0.0036055 0)
(-0.0708668 0.00364416 0)
(-0.0724393 0.00368249 0)
(-0.074026 0.00372025 0)
(-0.0756265 0.00375718 0)
(-0.0772403 0.00379298 0)
(-0.0788667 0.00382736 0)
(-0.080505 0.00386 0)
(-0.0821542 0.00389054 0)
(-0.0838133 0.00391862 0)
(-0.0854809 0.00394385 0)
(-0.0871558 0.00396581 0)
(-0.0888362 0.00398406 0)
(-0.0905203 0.00399814 0)
(-0.0922063 0.00400758 0)
(-0.0938919 0.00401185 0)
(-0.0955748 0.00401045 0)
(-0.0972522 0.0040028 0)
(-0.0989213 0.00398836 0)
(-0.100579 0.00396652 0)
(-0.102222 0.00393668 0)
(-0.103847 0.00389822 0)
(-0.105449 0.0038505 0)
(-0.107026 0.00379288 0)
(-0.108572 0.0037247 0)
(-0.110082 0.00364532 0)
(-0.111553 0.00355407 0)
(-0.112978 0.0034503 0)
(-0.114353 0.00333337 0)
(-0.115672 0.00320266 0)
(-0.116929 0.00305755 0)
(-0.118118 0.00289748 0)
(-0.119232 0.00272191 0)
(-0.120266 0.00253033 0)
(-0.121212 0.0023223 0)
(-0.122065 0.00209745 0)
(-0.122816 0.00185545 0)
(-0.12346 0.00159608 0)
(-0.123989 0.00131919 0)
(-0.124396 0.00102474 0)
(-0.124675 0.000712807 0)
(-0.124817 0.000383576 0)
(-0.124818 3.73783e-05 0)
(-0.12467 -0.000325316 0)
(-0.124367 -0.000703881 0)
(-0.123903 -0.00109753 0)
(-0.123272 -0.00150529 0)
(-0.12247 -0.00192603 0)
(-0.121492 -0.00235842 0)
(-0.120334 -0.00280092 0)
(-0.118992 -0.00325183 0)
(-0.117464 -0.00370921 0)
(-0.115749 -0.00417095 0)
(-0.113845 -0.00463475 0)
(-0.111752 -0.0050981 0)
(-0.109473 -0.00555831 0)
(-0.107008 -0.00601254 0)
(-0.104362 -0.00645779 0)
(-0.101539 -0.00689092 0)
(-0.0985441 -0.00730867 0)
(-0.0953857 -0.00770771 0)
(-0.0920717 -0.00808464 0)
(-0.0886119 -0.00843603 0)
(-0.0850175 -0.00875846 0)
(-0.0813009 -0.00904856 0)
(-0.0774757 -0.00930303 0)
(-0.0735571 -0.0095187 0)
(-0.069561 -0.00969256 0)
(-0.0655049 -0.00982182 0)
(-0.061407 -0.00990391 0)
(-0.0572865 -0.00993658 0)
(-0.0531635 -0.00991789 0)
(-0.0490588 -0.00984626 0)
(-0.0449935 -0.00972051 0)
(-0.0409892 -0.0095399 0)
(-0.0370678 -0.00930413 0)
(-0.0332509 -0.0090134 0)
(-0.0295602 -0.0086684 0)
(-0.0260167 -0.00827037 0)
(-0.022641 -0.00782111 0)
(-0.0194524 -0.00732303 0)
(-0.0164694 -0.00677918 0)
(-0.0137089 -0.00619339 0)
(-0.0111859 -0.00557032 0)
(-0.00891322 -0.00491571 0)
(-0.00690104 -0.00423659 0)
(-0.00515639 -0.00354174 0)
(-0.00368245 -0.00284222 0)
(-0.0024778 -0.00215222 0)
(-0.00153556 -0.00149018 0)
(-0.000842274 -0.000880414 0)
(-0.000376776 -0.0003552 0)
(-0.000108739 4.28607e-05 0)
(3.40916e-06 0.000257781 0)
(1.32456e-05 0.000210745 0)
(5.29441e-06 -0.000102926 0)
(6.65513e-06 -0.000161029 0)
(-2.10862e-05 -0.000110159 0)
(-9.69004e-05 2.04899e-05 0)
(-0.000235059 0.000208523 0)
(-0.000445686 0.000435839 0)
(-0.00073574 0.000687983 0)
(-0.00110952 0.000953621 0)
(-0.00156907 0.00122399 0)
(-0.00211457 0.0014924 0)
(-0.00274469 0.00175386 0)
(-0.00345692 0.00200473 0)
(-0.00424783 0.00224243 0)
(-0.00511335 0.00246528 0)
(-0.00604892 0.00267224 0)
(-0.00704971 0.00286285 0)
(-0.00811077 0.00303705 0)
(-0.00922709 0.00319512 0)
(-0.0103937 0.00333758 0)
(-0.0116059 0.00346515 0)
(-0.0128591 0.00357869 0)
(-0.0141489 0.00367913 0)
(-0.0154713 0.00376749 0)
(-0.0168225 0.0038448 0)
(-0.018199 0.00391209 0)
(-0.0195978 0.00397042 0)
(-0.0210158 0.00402077 0)
(-0.0224508 0.00406412 0)
(-0.0239003 0.0041014 0)
(-0.0253624 0.00413348 0)
(-0.0268356 0.00416119 0)
(-0.0283182 0.00418528 0)
(-0.0298093 0.00420647 0)
(-0.0313078 0.00422541 0)
(-0.0328129 0.00424268 0)
(-0.0343241 0.00425882 0)
(-0.0358411 0.00427432 0)
(-0.0373634 0.00428961 0)
(-0.0388912 0.00430507 0)
(-0.0404243 0.00432105 0)
(-0.041963 0.00433785 0)
(-0.0435074 0.00435572 0)
(-0.0450579 0.00437488 0)
(-0.0466149 0.00439554 0)
(-0.0481788 0.00441785 0)
(-0.04975 0.00444194 0)
(-0.0513293 0.00446792 0)
(-0.0529171 0.00449587 0)
(-0.0545141 0.00452584 0)
(-0.0561208 0.00455787 0)
(-0.0577379 0.00459199 0)
(-0.059366 0.00462817 0)
(-0.0610058 0.00466641 0)
(-0.0626579 0.00470666 0)
(-0.0643228 0.00474886 0)
(-0.0660012 0.00479294 0)
(-0.0676936 0.00483879 0)
(-0.0694004 0.00488631 0)
(-0.0711221 0.00493537 0)
(-0.0728592 0.0049858 0)
(-0.0746119 0.00503744 0)
(-0.0763806 0.0050901 0)
(-0.0781654 0.00514356 0)
(-0.0799665 0.00519758 0)
(-0.0817839 0.00525192 0)
(-0.0836175 0.00530627 0)
(-0.0854672 0.00536034 0)
(-0.0873326 0.00541379 0)
(-0.0892134 0.00546625 0)
(-0.0911089 0.00551735 0)
(-0.0930186 0.00556665 0)
(-0.0949416 0.00561371 0)
(-0.0968768 0.00565805 0)
(-0.0988232 0.00569917 0)
(-0.100779 0.00573651 0)
(-0.102744 0.00576952 0)
(-0.104714 0.00579757 0)
(-0.106689 0.00582003 0)
(-0.108667 0.00583624 0)
(-0.110645 0.00584548 0)
(-0.112619 0.00584702 0)
(-0.114588 0.0058401 0)
(-0.116549 0.00582392 0)
(-0.118497 0.00579767 0)
(-0.120429 0.00576048 0)
(-0.122341 0.0057115 0)
(-0.124229 0.00564982 0)
(-0.126089 0.00557455 0)
(-0.127915 0.00548477 0)
(-0.129702 0.00537954 0)
(-0.131446 0.00525793 0)
(-0.133139 0.00511902 0)
(-0.134777 0.0049619 0)
(-0.136353 0.00478565 0)
(-0.137861 0.00458941 0)
(-0.139293 0.00437234 0)
(-0.140643 0.00413363 0)
(-0.141904 0.00387256 0)
(-0.143068 0.00358843 0)
(-0.144128 0.00328066 0)
(-0.145075 0.00294874 0)
(-0.145902 0.00259225 0)
(-0.146602 0.00221092 0)
(-0.147166 0.00180459 0)
(-0.147586 0.00137324 0)
(-0.147855 0.000917034 0)
(-0.147964 0.000436295 0)
(-0.147907 -6.84582e-05 0)
(-0.147676 -0.000596501 0)
(-0.147263 -0.00114689 0)
(-0.146664 -0.00171845 0)
(-0.14587 -0.00230976 0)
(-0.144877 -0.00291914 0)
(-0.143681 -0.00354466 0)
(-0.142275 -0.00418409 0)
(-0.140657 -0.00483497 0)
(-0.138825 -0.00549452 0)
(-0.136776 -0.0061597 0)
(-0.13451 -0.0068272 0)
(-0.132027 -0.00749345 0)
(-0.129329 -0.00815463 0)
(-0.126419 -0.00880668 0)
(-0.1233 -0.00944534 0)
(-0.119978 -0.0100661 0)
(-0.11646 -0.0106645 0)
(-0.112754 -0.0112357 0)
(-0.10887 -0.0117749 0)
(-0.10482 -0.0122772 0)
(-0.100616 -0.0127379 0)
(-0.0962713 -0.0131522 0)
(-0.0918029 -0.0135154 0)
(-0.0872276 -0.013823 0)
(-0.0825636 -0.0140709 0)
(-0.0778307 -0.014255 0)
(-0.0730497 -0.0143718 0)
(-0.0682425 -0.014418 0)
(-0.0634317 -0.014391 0)
(-0.0586411 -0.0142886 0)
(-0.0538946 -0.014109 0)
(-0.0492168 -0.0138514 0)
(-0.0446324 -0.0135152 0)
(-0.040166 -0.0131008 0)
(-0.0358422 -0.0126093 0)
(-0.0316848 -0.0120424 0)
(-0.027717 -0.011403 0)
(-0.0239609 -0.0106945 0)
(-0.020437 -0.00992136 0)
(-0.0171645 -0.00908931 0)
(-0.0141602 -0.00820515 0)
(-0.0114385 -0.00727723 0)
(-0.0090108 -0.00631572 0)
(-0.00688495 -0.00533307 0)
(-0.00506473 -0.00434475 0)
(-0.00354912 -0.0033701 0)
(-0.00233155 -0.00243363 0)
(-0.00139911 -0.00156669 0)
(-0.000731558 -0.000809675 0)
(-0.000300163 -0.000214385 0)
(-6.9347e-05 0.000152754 0)
(3.31411e-07 0.000200214 0)
(1.28728e-06 -0.000102488 0)
(-1.70888e-05 -0.000133675 0)
(-8.50072e-05 -3.58281e-05 0)
(-0.000216734 0.000157082 0)
(-0.000424263 0.000418842 0)
(-0.000716735 0.000728073 0)
(-0.00110032 0.00106749 0)
(-0.00157865 0.00142337 0)
(-0.00215329 0.00178491 0)
(-0.00282398 0.00214377 0)
(-0.00358901 0.0024936 0)
(-0.00444549 0.00282969 0)
(-0.00538963 0.00314868 0)
(-0.00641693 0.00344829 0)
(-0.00752243 0.00372712 0)
(-0.00870087 0.00398445 0)
(-0.0099468 0.00422014 0)
(-0.0112548 0.00443449 0)
(-0.0126194 0.00462811 0)
(-0.0140353 0.00480192 0)
(-0.0154976 0.00495697 0)
(-0.0170013 0.00509449 0)
(-0.0185421 0.00521577 0)
(-0.0201157 0.00532216 0)
(-0.0217181 0.00541503 0)
(-0.023346 0.00549573 0)
(-0.0249961 0.0055656 0)
(-0.0266655 0.00562592 0)
(-0.0283518 0.00567793 0)
(-0.0300526 0.0057228 0)
(-0.0317661 0.00576162 0)
(-0.0334907 0.00579543 0)
(-0.0352249 0.00582517 0)
(-0.0369676 0.00585171 0)
(-0.0387181 0.00587587 0)
(-0.0404754 0.00589837 0)
(-0.0422393 0.00591987 0)
(-0.0440093 0.00594095 0)
(-0.0457853 0.00596215 0)
(-0.0475673 0.00598393 0)
(-0.0493554 0.00600669 0)
(-0.0511498 0.00603081 0)
(-0.0529509 0.00605659 0)
(-0.054759 0.00608429 0)
(-0.0565746 0.00611413 0)
(-0.0583982 0.0061463 0)
(-0.0602304 0.00618094 0)
(-0.0620719 0.00621816 0)
(-0.0639233 0.00625805 0)
(-0.0657852 0.00630065 0)
(-0.0676583 0.00634598 0)
(-0.0695433 0.00639405 0)
(-0.0714409 0.00644481 0)
(-0.0733517 0.00649821 0)
(-0.0752764 0.00655417 0)
(-0.0772155 0.00661257 0)
(-0.0791697 0.00667329 0)
(-0.0811393 0.00673617 0)
(-0.083125 0.00680101 0)
(-0.0851271 0.0068676 0)
(-0.087146 0.00693571 0)
(-0.0891818 0.00700506 0)
(-0.0912348 0.00707536 0)
(-0.0933051 0.00714628 0)
(-0.0953926 0.00721745 0)
(-0.0974971 0.00728848 0)
(-0.0996184 0.00735895 0)
(-0.101756 0.00742839 0)
(-0.10391 0.0074963 0)
(-0.106078 0.00756213 0)
(-0.108261 0.00762532 0)
(-0.110458 0.00768525 0)
(-0.112666 0.00774126 0)
(-0.114885 0.00779265 0)
(-0.117113 0.00783867 0)
(-0.119348 0.00787855 0)
(-0.121588 0.00791146 0)
(-0.123831 0.00793653 0)
(-0.126074 0.00795284 0)
(-0.128315 0.00795944 0)
(-0.13055 0.00795534 0)
(-0.132776 0.0079395 0)
(-0.134989 0.00791085 0)
(-0.137185 0.00786829 0)
(-0.139361 0.00781067 0)
(-0.141511 0.00773683 0)
(-0.143631 0.00764557 0)
(-0.145716 0.0075357 0)
(-0.147759 0.00740597 0)
(-0.149756 0.00725517 0)
(-0.1517 0.00708206 0)
(-0.153584 0.00688542 0)
(-0.155403 0.00666404 0)
(-0.157149 0.00641674 0)
(-0.158814 0.00614238 0)
(-0.160391 0.00583987 0)
(-0.161872 0.00550818 0)
(-0.16325 0.00514637 0)
(-0.164516 0.00475356 0)
(-0.165661 0.00432902 0)
(-0.166677 0.0038721 0)
(-0.167556 0.00338233 0)
(-0.168289 0.00285938 0)
(-0.168867 0.00230309 0)
(-0.169281 0.00171352 0)
(-0.169523 0.00109093 0)
(-0.169584 0.000435812 0)
(-0.169457 -0.000251068 0)
(-0.169133 -0.000968687 0)
(-0.168606 -0.00171573 0)
(-0.167867 -0.00249056 0)
(-0.16691 -0.00329124 0)
(-0.16573 -0.00411547 0)
(-0.16432 -0.00496063 0)
(-0.162678 -0.00582374 0)
(-0.160798 -0.00670143 0)
(-0.158678 -0.00759 0)
(-0.156317 -0.00848539 0)
(-0.153714 -0.00938316 0)
(-0.150869 -0.0102785 0)
(-0.147785 -0.0111665 0)
(-0.144464 -0.0120415 0)
(-0.140912 -0.0128981 0)
(-0.137135 -0.0137302 0)
(-0.13314 -0.0145318 0)
(-0.128936 -0.0152966 0)
(-0.124535 -0.0160182 0)
(-0.119949 -0.0166903 0)
(-0.115192 -0.0173065 0)
(-0.11028 -0.0178604 0)
(-0.105229 -0.018346 0)
(-0.10006 -0.0187573 0)
(-0.0947919 -0.0190887 0)
(-0.0894465 -0.019335 0)
(-0.0840467 -0.0194915 0)
(-0.0786168 -0.0195538 0)
(-0.0731816 -0.0195186 0)
(-0.0677671 -0.0193827 0)
(-0.0623999 -0.0191441 0)