/*--------------------------------*- C++ -*----------------------------------*\
  =========                 |
  \\      /  F ield         | OpenFOAM: The Open Source CFD Toolbox
   \\    /   O peration     | Website:  https://openfoam.org
    \\  /    A nd           | Version:  7
     \\/     M anipulation  |
\*---------------------------------------------------------------------------*/
FoamFile
{
    version     2.0;
    format      ascii;
    class       surfaceScalarField;
    location    "0.275";
    object      phi;
}
// * * * * * * * * * * * * * * * * * * * * * * * * * * * * * * * * * * * * * //

dimensions      [0 3 -1 0 0 0 0];

internalField   nonuniform List<scalar> 
101920
(
-3.78642e-14
8.94143e-14
6.39123e-13
-6.76284e-13
2.09268e-12
-1.45449e-12
3.40772e-12
-1.31298e-12
4.39711e-12
-9.8911e-13
5.15396e-12
-7.58315e-13
5.79028e-12
-6.3765e-13
6.36771e-12
-5.80052e-13
6.9193e-12
-5.50924e-13
7.44311e-12
-5.26432e-13
7.93978e-12
-5.00256e-13
8.4068e-12
-4.6312e-13
8.82806e-12
-4.22375e-13
9.19689e-12
-3.67116e-13
9.50382e-12
-3.08165e-13
9.74528e-12
-2.41352e-13
9.9163e-12
-1.72011e-13
1.00117e-11
-9.81657e-14
1.00297e-11
-1.72361e-14
9.96409e-12
6.33698e-14
9.81771e-12
1.48502e-13
9.58471e-12
2.32254e-13
9.2689e-12
3.15592e-13
8.86792e-12
4.00126e-13
8.38385e-12
4.82665e-13
7.81999e-12
5.62857e-13
7.17915e-12
6.41889e-13
6.46141e-12
7.16295e-13
5.6709e-12
7.89504e-13
4.80871e-12
8.616e-13
3.87775e-12
9.29318e-13
2.88449e-12
9.94443e-13
1.83098e-12
1.05531e-12
7.20842e-13
1.11046e-12
-4.40914e-13
1.16376e-12
-1.65252e-12
1.21279e-12
-2.90939e-12
1.25617e-12
-4.20557e-12
1.29692e-12
-5.5383e-12
1.33404e-12
-6.90186e-12
1.36474e-12
-8.29091e-12
1.39236e-12
-9.70373e-12
1.41567e-12
-1.11357e-11
1.43218e-12
-1.25813e-11
1.44589e-12
-1.40379e-11
1.45713e-12
-1.5502e-11
1.46236e-12
-1.69685e-11
1.46458e-12
-1.84344e-11
1.46522e-12
-1.98961e-11
1.45978e-12
-2.13466e-11
1.44917e-12
-2.27831e-11
1.43657e-12
-2.42037e-11
1.42062e-12
-2.56045e-11
1.39972e-12
-2.69807e-11
1.37722e-12
-2.83313e-11
1.35231e-12
-2.9653e-11
1.3217e-12
-3.0939e-11
1.28731e-12
-3.21882e-11
1.25122e-12
-3.34008e-11
1.21195e-12
-3.45712e-11
1.16913e-12
-3.56952e-11
1.12382e-12
-3.67714e-11
1.07571e-12
-3.7797e-11
1.02469e-12
-3.87694e-11
9.72553e-13
-3.96879e-11
9.19619e-13
-4.0552e-11
8.64311e-13
-4.1359e-11
8.06321e-13
-4.21052e-11
7.46039e-13
-4.27895e-11
6.83976e-13
-4.34114e-11
6.21229e-13
-4.39691e-11
5.57833e-13
-4.44609e-11
4.92728e-13
-4.48866e-11
4.25991e-13
-4.52462e-11
3.58708e-13
-4.55385e-11
2.91244e-13
-4.57627e-11
2.23593e-13
-4.59191e-11
1.56182e-13
-4.60075e-11
8.90078e-14
-4.6027e-11
2.10233e-14
-4.59779e-11
-4.83542e-14
-4.58607e-11
-1.17953e-13
-4.56758e-11
-1.86236e-13
-4.54233e-11
-2.53146e-13
-4.5103e-11
-3.1991e-13
-4.4716e-11
-3.86607e-13
-4.42649e-11
-4.51589e-13
-4.37503e-11
-5.1465e-13
-4.31724e-11
-5.77526e-13
-4.25319e-11
-6.40661e-13
-4.18295e-11
-7.02602e-13
-4.10675e-11
-7.62142e-13
-4.02484e-11
-8.19599e-13
-3.93739e-11
-8.75738e-13
-3.84453e-11
-9.29942e-13
-3.74645e-11
-9.80951e-13
-3.64341e-11
-1.0292e-12
-3.53563e-11
-1.07639e-12
-3.42338e-11
-1.12256e-12
-3.30689e-11
-1.16575e-12
-3.18643e-11
-1.20479e-12
-3.06231e-11
-1.24068e-12
-2.93474e-11
-1.27501e-12
-2.80391e-11
-1.30772e-12
-2.67024e-11
-1.33695e-12
-2.53418e-11
-1.36167e-12
-2.39605e-11
-1.38271e-12
-2.25607e-11
-1.40065e-12
-2.11451e-11
-1.41498e-12
-1.97186e-11
-1.42539e-12
-1.82854e-11
-1.43254e-12
-1.68482e-11
-1.43709e-12
-1.54097e-11
-1.43826e-12
-1.39742e-11
-1.43476e-12
-1.25468e-11
-1.42676e-12
-1.11318e-11
-1.41541e-12
-9.73139e-12
-1.40127e-12
-8.34881e-12
-1.38339e-12
-6.98938e-12
-1.36025e-12
-5.65775e-12
-1.33196e-12
-4.35738e-12
-1.30005e-12
-3.09176e-12
-1.26482e-12
-1.86485e-12
-1.2255e-12
-6.81868e-13
-1.18195e-12
4.52797e-13
-1.13453e-12
1.53707e-12
-1.08383e-12
2.56782e-12
-1.03016e-12
3.54029e-12
-9.72683e-13
4.45042e-12
-9.10677e-13
5.29461e-12
-8.44692e-13
6.06985e-12
-7.75427e-13
6.77362e-12
-7.03129e-13
7.40274e-12
-6.28163e-13
7.95446e-12
-5.50934e-13
8.42722e-12
-4.71663e-13
8.81864e-12
-3.90621e-13
9.12593e-12
-3.07929e-13
9.34773e-12
-2.23377e-13
9.48355e-12
-1.37022e-13
9.53295e-12
-4.96208e-14
9.49633e-12
3.74037e-14
9.37412e-12
1.22832e-13
9.16653e-12
2.06882e-13
8.87558e-12
2.89987e-13
8.50438e-12
3.70952e-13
8.05651e-12
4.47736e-13
7.53714e-12
5.1904e-13
6.95296e-12
5.84036e-13
6.31126e-12
6.41527e-13
5.62052e-12
6.90188e-13
4.89222e-12
7.28056e-13
4.13999e-12
7.52158e-13
3.37953e-12
7.59893e-13
2.63079e-12
7.48714e-13
1.91712e-12
7.14665e-13
1.26533e-12
6.52814e-13
7.07614e-13
5.58406e-13
2.80044e-13
4.27589e-13
1.7424e-14
2.60024e-13
-6.08383e-14
7.19401e-14
-6.62117e-14
-5.05446e-13
5.95661e-13
-7.1503e-14
-1.11012e-12
1.5921e-12
-3.12038e-12
3.64885e-12
-3.37291e-12
5.71006e-12
-3.05277e-12
7.69775e-12
-2.74207e-12
9.59943e-12
-2.54096e-12
1.14336e-11
-2.41261e-12
1.31969e-11
-2.31128e-12
1.48722e-11
-2.20263e-12
1.64422e-11
-2.06722e-12
1.78793e-11
-1.90467e-12
1.91611e-11
-1.70432e-12
2.02693e-11
-1.47674e-12
2.11838e-11
-1.22177e-12
2.18911e-11
-9.45726e-13
2.23761e-11
-6.56691e-13
2.2632e-11
-3.50543e-13
2.26482e-11
-3.66674e-14
2.24243e-11
2.87964e-13
2.19533e-11
6.17937e-13
2.12363e-11
9.48086e-13
2.02751e-11
1.27916e-12
1.90702e-11
1.60593e-12
1.76262e-11
1.92599e-12
1.59489e-11
2.24115e-12
1.4043e-11
2.5461e-12
1.19181e-11
2.84219e-12
9.58231e-12
3.12867e-12
7.04161e-12
3.40112e-12
4.30708e-12
3.66299e-12
1.38837e-12
3.91163e-12
-1.70499e-12
4.1443e-12
-4.96009e-12
4.36416e-12
-8.36667e-12
4.56927e-12
-1.19137e-11
4.75741e-12
-1.55876e-11
4.93014e-12
-1.93779e-11
5.086e-12
-2.32733e-11
5.2238e-12
-2.7259e-11
5.34619e-12
-3.13233e-11
5.45367e-12
-3.54548e-11
5.54303e-12
-3.96395e-11
5.61612e-12
-4.38672e-11
5.67458e-12
-4.81269e-11
5.7161e-12
-5.24042e-11
5.74116e-12
-5.66878e-11
5.75174e-12
-6.09678e-11
5.74611e-12
-6.52311e-11
5.72324e-12
-6.94661e-11
5.68642e-12
-7.36641e-11
5.6353e-12
-7.78139e-11
5.56865e-12
-8.1903e-11
5.48863e-12
-8.59232e-11
5.39676e-12
-8.98654e-11
5.29116e-12
-9.37185e-11
5.17231e-12
-9.74734e-11
5.04223e-12
-1.01123e-10
4.90034e-12
-1.04658e-10
4.74612e-12
-1.08067e-10
4.58052e-12
-1.11345e-10
4.4038e-12
-1.14487e-10
4.21643e-12
-1.17482e-10
4.01979e-12
-1.20325e-10
3.81544e-12
-1.23011e-10
3.60414e-12
-1.25534e-10
3.38561e-12
-1.27886e-10
3.15947e-12
-1.30064e-10
2.92538e-12
-1.32065e-10
2.68422e-12
-1.33883e-10
2.43836e-12
-1.35514e-10
2.18843e-12
-1.36956e-10
1.93356e-12
-1.38206e-10
1.67482e-12
-1.3926e-10
1.41355e-12
-1.40116e-10
1.14903e-12
-1.40773e-10
8.81245e-13
-1.41232e-10
6.12679e-13
-1.4149e-10
3.45e-13
-1.41547e-10
7.70742e-14
-1.41403e-10
-1.92376e-13
-1.41058e-10
-4.62186e-13
-1.40513e-10
-7.30397e-13
-1.39769e-10
-9.96574e-13
-1.38829e-10
-1.26101e-12
-1.37694e-10
-1.52279e-12
-1.36367e-10
-1.78002e-12
-1.3485e-10
-2.03259e-12
-1.33146e-10
-2.28202e-12
-1.3126e-10
-2.52777e-12
-1.29196e-10
-2.76742e-12
-1.26957e-10
-3.00016e-12
-1.24547e-10
-3.22689e-12
-1.21974e-10
-3.44785e-12
-1.19242e-10
-3.66166e-12
-1.16358e-10
-3.86648e-12
-1.13328e-10
-4.0618e-12
-1.10158e-10
-4.24837e-12
-1.06854e-10
-4.42632e-12
-1.03425e-10
-4.59448e-12
-9.98778e-11
-4.75194e-12
-9.62218e-11
-4.89857e-12
-9.24643e-11
-5.03409e-12
-8.8613e-11
-5.15796e-12
-8.46776e-11
-5.26978e-12
-8.06678e-11
-5.36931e-12
-7.65931e-11
-5.45639e-12
-7.24635e-11
-5.5305e-12
-6.82887e-11
-5.59058e-12
-6.40786e-11
-5.63629e-12
-5.98443e-11
-5.66802e-12
-5.55964e-11
-5.68591e-12
-5.13463e-11
-5.68931e-12
-4.71051e-11
-5.67706e-12
-4.28831e-11
-5.649e-12
-3.86916e-11
-5.60619e-12
-3.45418e-11
-5.5492e-12
-3.04454e-11
-5.47742e-12
-2.64147e-11
-5.38985e-12
-2.24616e-11
-5.28585e-12
-1.85969e-11
-5.16586e-12
-1.48322e-11
-5.03047e-12
-1.11789e-11
-4.87925e-12
-7.64855e-12
-4.71213e-12
-4.25318e-12
-4.52998e-12
-1.0028e-12
-4.33347e-12
2.0924e-12
-4.12308e-12
5.02086e-12
-3.89908e-12
7.77234e-12
-3.66105e-12
1.03376e-11
-3.40919e-12
1.27074e-11
-3.14492e-12
1.48732e-11
-2.86933e-12
1.68269e-11
-2.58284e-12
1.85604e-11
-2.28611e-12
2.00679e-11
-1.9799e-12
2.13446e-11
-1.66569e-12
2.23852e-11
-1.34587e-12
2.31845e-11
-1.02197e-12
2.37405e-11
-6.94391e-13
2.4053e-11
-3.64302e-13
2.41231e-11
-3.41496e-14
2.39527e-11
2.92962e-13
2.3545e-11
6.14224e-13
2.29062e-11
9.27709e-13
2.20458e-11
1.23095e-12
2.09746e-11
1.51923e-12
1.97062e-11
1.78704e-12
1.82585e-11
2.03054e-12
1.66537e-11
2.24583e-12
1.49174e-11
2.4267e-12
1.30801e-11
2.56551e-12
1.11788e-11
2.65393e-12
9.25549e-12
2.68289e-12
7.36017e-12
2.64297e-12
5.55056e-12
2.52369e-12
3.89032e-12
2.31328e-12
2.44839e-12
2.00131e-12
1.29607e-12
1.58394e-12
4.96789e-13
1.06948e-12
8.41856e-14
4.97905e-13
1.4343e-14
-9.01972e-13
1.49671e-12
-9.10295e-13
-1.10359e-12
4.33529e-13
-4.4633e-12
2.60759e-12
-5.54549e-12
5.19872e-12
-5.64424e-12
7.98104e-12
-5.52291e-12
1.08206e-11
-5.38092e-12
1.36444e-11
-5.23762e-12
1.63912e-11
-5.05735e-12
1.90055e-11
-4.81913e-12
2.14456e-11
-4.50745e-12
2.36642e-11
-4.12089e-12
2.56233e-11
-3.66541e-12
2.72907e-11
-3.14681e-12
2.86395e-11
-2.57153e-12
2.9644e-11
-1.9552e-12
3.02907e-11
-1.30084e-12
3.05605e-11
-6.21098e-13
3.0445e-11
7.94499e-14
2.99382e-11
7.95482e-13
2.90347e-11
1.51876e-12
2.77362e-11
2.24568e-12
2.60435e-11
2.97116e-12
2.39614e-11
3.68713e-12
2.14971e-11
4.3918e-12
1.86567e-11
5.08012e-12
1.54513e-11
5.74953e-12
1.18934e-11
6.40006e-12
7.99382e-12
7.0266e-12
3.7695e-12
7.62752e-12
-7.65275e-13
8.20068e-12
-5.59731e-12
8.74303e-12
-1.07063e-11
9.25491e-12
-1.60755e-11
9.73515e-12
-2.16892e-11
1.01813e-11
-2.75257e-11
1.0595e-11
-3.35664e-11
1.09736e-11
-3.97936e-11
1.13149e-11
-4.61861e-11
1.16198e-11
-5.27256e-11
1.18888e-11
-5.9393e-11
1.21204e-11
-6.61669e-11
1.23163e-11
-7.30269e-11
1.24769e-11
-7.99555e-11
1.26006e-11
-8.69321e-11
1.26897e-11
-9.39367e-11
1.2745e-11
-1.00951e-10
1.27651e-11
-1.07957e-10
1.27496e-11
-1.14934e-10
1.27011e-11
-1.21867e-10
1.26189e-11
-1.28736e-10
1.25034e-11
-1.35524e-10
1.23574e-11
-1.42214e-10
1.21813e-11
-1.48791e-10
1.19743e-11
-1.55237e-10
1.17383e-11
-1.61537e-10
1.14745e-11
-1.67679e-10
1.11833e-11
-1.73647e-10
1.08663e-11
-1.79426e-10
1.05247e-11
-1.85003e-10
1.01583e-11
-1.90368e-10
9.76741e-12
-1.95506e-10
9.35454e-12
-2.00406e-10
8.9214e-12
-2.05059e-10
8.46878e-12
-2.09455e-10
7.99866e-12
-2.13582e-10
7.51253e-12
-2.17433e-10
7.01031e-12
-2.21001e-10
6.49232e-12
-2.24277e-10
5.96033e-12
-2.27254e-10
5.41633e-12
-2.29926e-10
4.86108e-12
-2.3229e-10
4.2954e-12
-2.34338e-10
3.72178e-12
-2.36067e-10
3.14191e-12
-2.37473e-10
2.55563e-12
-2.38554e-10
1.96351e-12
-2.39308e-10
1.36782e-12
-2.39733e-10
7.70462e-13
-2.39829e-10
1.72008e-13
-2.39597e-10
-4.26855e-13
-2.39035e-10
-1.02446e-12
-2.38145e-10
-1.61951e-12
-2.36929e-10
-2.21156e-12
-2.35392e-10
-2.79921e-12
-2.33535e-10
-3.38009e-12
-2.31361e-10
-3.95277e-12
-2.28877e-10
-4.51707e-12
-2.26087e-10
-5.07287e-12
-2.22997e-10
-5.61849e-12
-2.19614e-10
-6.15139e-12
-2.15945e-10
-6.67039e-12
-2.11998e-10
-7.1752e-12
-2.07781e-10
-7.66483e-12
-2.03302e-10
-8.1381e-12
-1.98573e-10
-8.59412e-12
-1.93604e-10
-9.03164e-12
-1.88405e-10
-9.449e-12
-1.82987e-10
-9.84482e-12
-1.77361e-10
-1.02185e-11
-1.71542e-10
-1.057e-11
-1.65542e-10
-1.08987e-11
-1.59375e-10
-1.12027e-11
-1.53054e-10
-1.14802e-11
-1.46594e-10
-1.17306e-11
-1.40011e-10
-1.19536e-11
-1.33318e-10
-1.21483e-11
-1.26532e-10
-1.23141e-11
-1.19672e-10
-1.24502e-11
-1.12753e-10
-1.25554e-11
-1.05791e-10
-1.26297e-11
-9.8804e-11
-1.26724e-11
-9.181e-11
-1.26827e-11
-8.48278e-11
-1.266e-11
-7.78748e-11
-1.26037e-11
-7.09689e-11
-1.25136e-11
-6.41286e-11
-1.23901e-11
-5.73733e-11
-1.22326e-11
-5.07217e-11
-1.20408e-11
-4.41919e-11
-1.18146e-11
-3.78025e-11
-1.15539e-11
-3.15731e-11
-1.12589e-11
-2.55222e-11
-1.093e-11
-1.96671e-11
-1.0567e-11
-1.40259e-11
-1.01708e-11
-8.61677e-12
-9.74275e-12
-3.45695e-12
-9.28331e-12
1.43679e-12
-8.79294e-12
6.04865e-12
-8.27241e-12
1.03633e-11
-7.7228e-12
1.43659e-11
-7.14608e-12
1.80427e-11
-6.54465e-12
2.1381e-11
-5.92016e-12
2.43692e-11
-5.27426e-12
2.6997e-11
-4.60886e-12
2.92554e-11
-3.92597e-12
3.11378e-11
-3.22906e-12
3.2639e-11
-2.52251e-12
3.37552e-11
-1.8097e-12
3.44845e-11
-1.09376e-12
3.48288e-11
-3.79297e-13
3.47924e-11
3.28366e-13
3.43817e-11
1.024e-12
3.36075e-11
1.70159e-12
3.24841e-11
2.35402e-12
3.10296e-11
2.9733e-12
2.92664e-11
3.54998e-12
2.72225e-11
4.07407e-12
2.49318e-11
4.53569e-12
2.24352e-11
4.92299e-12
1.97796e-11
5.2212e-12
1.70198e-11
5.41396e-12
1.42191e-11
5.48409e-12
1.14501e-11
5.41313e-12
8.79326e-12
5.18151e-12
6.33547e-12
4.77015e-12
4.16867e-12
4.1644e-12
2.3839e-12
3.3626e-12
1.06299e-12
2.38644e-12
2.67163e-13
1.30107e-12
2.80616e-13
-4.37094e-13
1.93547e-12
-1.51704e-13
-1.39187e-12
1.25144e-12
-5.86475e-12
3.54323e-12
-7.84552e-12
6.42698e-12
-8.52587e-12
9.64391e-12
-8.74344e-12
1.30207e-11
-8.7601e-12
1.64259e-11
-8.64301e-12
1.97582e-11
-8.38938e-12
2.29314e-11
-7.99437e-12
2.58798e-11
-7.45314e-12
2.85368e-11
-6.77819e-12
3.08525e-11
-5.98016e-12
3.27797e-11
-5.07206e-12
3.4283e-11
-4.07457e-12
3.53283e-11
-3.00016e-12
3.58914e-11
-1.86516e-12
3.59539e-11
-6.84697e-13
3.55025e-11
5.31958e-13
3.4526e-11
1.7707e-12
3.30234e-11
3.0231e-12
3.099e-11
4.27904e-12
2.84288e-11
5.52963e-12
2.53486e-11
6.7682e-12
2.17534e-11
7.98649e-12
1.76563e-11
9.17704e-12
1.30715e-11
1.03361e-11
8.01052e-12
1.14588e-11
2.49403e-12
1.25409e-11
-3.4582e-12
1.35799e-11
-9.83003e-12
1.45704e-11
-1.65972e-11
1.55095e-11
-2.37368e-11
1.63957e-11
-3.12279e-11
1.7225e-11
-3.90438e-11
1.79965e-11
-4.7159e-11
1.87098e-11
-5.55513e-11
1.93622e-11
-6.41915e-11
1.99531e-11
-7.30526e-11
2.04819e-11
-8.21114e-11
2.09468e-11
-9.13395e-11
2.13483e-11
-1.0071e-10
2.16879e-11
-1.10196e-10
2.1964e-11
-1.19772e-10
2.21764e-11
-1.29409e-10
2.23281e-11
-1.39082e-10
2.24185e-11
-1.48766e-10
2.24473e-11
-1.58433e-10
2.24175e-11
-1.6806e-10
2.2329e-11
-1.77624e-10
2.21811e-11
-1.87099e-10
2.1977e-11
-1.9646e-10
2.17184e-11
-2.05686e-10
2.14058e-11
-2.14754e-10
2.10408e-11
-2.2364e-10
2.06259e-11
-2.32326e-10
2.01614e-11
-2.40791e-10
1.96485e-11
-2.49015e-10
1.90903e-11
-2.56978e-10
1.84887e-11
-2.64665e-10
1.78443e-11
-2.72057e-10
1.71594e-11
-2.79139e-10
1.64366e-11
-2.85895e-10
1.56771e-11
-2.92309e-10
1.48828e-11
-2.98367e-10
1.40573e-11
-3.04056e-10
1.32025e-11
-3.09366e-10
1.23192e-11
-3.14285e-10
1.141e-11
-3.18803e-10
1.04775e-11
-3.22909e-10
9.52303e-12
-3.26596e-10
8.54835e-12
-3.29856e-10
7.55612e-12
-3.32683e-10
6.54904e-12
-3.35071e-10
5.52912e-12
-3.37016e-10
4.4983e-12
-3.38512e-10
3.45919e-12
-3.39557e-10
2.41406e-12
-3.4015e-10
1.36418e-12
-3.40289e-10
3.11227e-13
-3.39975e-10
-7.41765e-13
-3.39208e-10
-1.79191e-12
-3.3799e-10
-2.83786e-12
-3.36323e-10
-3.87856e-12
-3.34212e-10
-4.91111e-12
-3.3166e-10
-5.93212e-12
-3.28672e-10
-6.93992e-12
-3.25257e-10
-7.93331e-12
-3.2142e-10
-8.91022e-12
-3.17169e-10
-9.8683e-12
-3.12514e-10
-1.08055e-11
-3.07464e-10
-1.172e-11
-3.02031e-10
-1.26097e-11
-2.96226e-10
-1.34716e-11
-2.90061e-10
-1.43038e-11
-2.83548e-10
-1.51058e-11
-2.76704e-10
-1.58761e-11
-2.69542e-10
-1.66118e-11
-2.62077e-10
-1.73101e-11
-2.54327e-10
-1.79695e-11
-2.46307e-10
-1.85893e-11
-2.38037e-10
-1.91682e-11
-2.29533e-10
-1.97041e-11
-2.20818e-10
-2.01949e-11
-2.11911e-10
-2.06391e-11
-2.0283e-10
-2.10353e-11
-1.93597e-10
-2.13817e-11
-1.84234e-10
-2.16769e-11
-1.74764e-10
-2.19199e-11
-1.65211e-10
-2.21095e-11
-1.55597e-10
-2.22446e-11
-1.45945e-10
-2.23242e-11
-1.3628e-10
-2.23473e-11
-1.26626e-10
-2.23133e-11
-1.17008e-10
-2.22214e-11
-1.07451e-10
-2.20708e-11
-9.79802e-11
-2.18609e-11
-8.86223e-11
-2.15916e-11
-7.94023e-11
-2.12622e-11
-7.03441e-11
-2.0873e-11
-6.14732e-11
-2.04242e-11
-5.2816e-11
-1.9916e-11
-4.43975e-11
-1.93484e-11
-3.62417e-11
-1.87222e-11
-2.83728e-11
-1.80385e-11
-2.08148e-11
-1.72992e-11
-1.3592e-11
-1.65057e-11
-6.72676e-12
-1.56586e-11
-2.39341e-13
-1.47595e-11
5.84922e-12
-1.38111e-11
1.15184e-11
-1.28158e-11
1.67506e-11
-1.1777e-11
2.15288e-11
-1.06978e-11
2.58376e-11
-9.58186e-12
2.96638e-11
-8.43362e-12
3.29952e-11
-7.25776e-12
3.58223e-11
-6.05836e-12
3.81395e-11
-4.84077e-12
3.99427e-11
-3.61225e-12
4.12295e-11
-2.38025e-12
4.20017e-11
-1.1522e-12
4.22659e-11
6.34103e-14
4.20318e-11
1.25722e-12
4.13139e-11
2.41897e-12
4.01317e-11
3.53645e-12
3.85085e-11
4.59588e-12
3.64751e-11
5.58255e-12
3.40692e-11
6.48027e-12
3.13344e-11
7.27106e-12
2.8322e-11
7.93497e-12
2.50929e-11
8.44948e-12
2.17169e-11
8.78953e-12
1.82721e-11
8.92853e-12
1.48468e-11
8.83897e-12
1.15383e-11
8.49248e-12
8.45023e-12
7.86173e-12
5.69074e-12
6.92679e-12
3.36746e-12
5.68587e-12
1.58111e-12
4.16863e-12
4.30585e-13
2.45415e-12
7.11409e-13
1.4375e-13
1.79201e-12
9.58456e-13
-2.20888e-12
2.64658e-12
-7.55297e-12
5.14965e-12
-1.0347e-11
8.25676e-12
-1.16352e-11
1.17483e-11
-1.22294e-11
1.54311e-11
-1.24449e-11
1.91574e-11
-1.2369e-11
2.28004e-11
-1.20331e-11
2.62587e-11
-1.14512e-11
2.94387e-11
-1.06369e-11
3.22696e-11
-9.6099e-12
3.46824e-11
-8.39358e-12
3.66243e-11
-7.01483e-12
3.80473e-11
-5.49735e-12
3.89127e-11
-3.8652e-12
3.91891e-11
-2.14365e-12
3.88548e-11
-3.48654e-13
3.78879e-11
1.49588e-12
3.62817e-11
3.37705e-12
3.40274e-11
5.27772e-12
3.11229e-11
7.18278e-12
2.75733e-11
9.08015e-12
2.33816e-11
1.09585e-11
1.8559e-11
1.28067e-11
1.31207e-11
1.46165e-11
7.07914e-12
1.6378e-11
4.54546e-13
1.80835e-11
-6.73092e-12
1.97283e-11
-1.44571e-11
2.13048e-11
-2.26963e-11
2.28092e-11
-3.14221e-11
2.42366e-11
-4.06097e-11
2.55821e-11
-5.02275e-11
2.68432e-11
-6.0245e-11
2.80167e-11
-7.06333e-11
2.90985e-11
-8.13601e-11
3.00888e-11
-9.2392e-11
3.09855e-11
-1.03698e-10
3.17867e-11
-1.15244e-10
3.24919e-11
-1.26996e-10
3.31009e-11
-1.38922e-10
3.36135e-11
-1.5099e-10
3.40294e-11
-1.63163e-10
3.43505e-11
-1.75411e-10
3.45763e-11
-1.87701e-10
3.47068e-11
-1.99998e-10
3.47449e-11
-2.12271e-10
3.46917e-11
-2.24491e-10
3.45476e-11
-2.36625e-10
3.4315e-11
-2.48642e-10
3.39959e-11
-2.60515e-10
3.35916e-11
-2.72215e-10
3.31044e-11
-2.83711e-10
3.25371e-11
-2.94977e-10
3.18925e-11
-3.05989e-10
3.11721e-11
-3.16719e-10
3.03785e-11
-3.27142e-10
2.95147e-11
-3.37236e-10
2.85827e-11
-3.46978e-10
2.75855e-11
-3.56345e-10
2.65271e-11
-3.65318e-10
2.54101e-11
-3.73879e-10
2.42368e-11
-3.82007e-10
2.30108e-11
-3.89685e-10
2.17359e-11
-3.96896e-10
2.04144e-11
-4.03627e-10
1.90491e-11
-4.09862e-10
1.76445e-11
-4.15588e-10
1.62037e-11
-4.20794e-10
1.47288e-11
-4.2547e-10
1.32235e-11
-4.29606e-10
1.1692e-11
-4.33192e-10
1.01369e-11
-4.36223e-10
8.56066e-12
-4.38693e-10
6.96739e-12
-4.40596e-10
5.36168e-12
-4.41929e-10
3.74644e-12
-4.42688e-10
2.1237e-12
-4.42874e-10
4.96738e-13
-4.42485e-10
-1.1302e-12
-4.41523e-10
-2.75361e-12
-4.3999e-10
-4.371e-12
-4.37889e-10
-5.97934e-12
-4.35225e-10
-7.57456e-12
-4.32004e-10
-9.15299e-12
-4.28232e-10
-1.07123e-11
-4.23917e-10
-1.22493e-11
-4.19068e-10
-1.376e-11
-4.13695e-10
-1.52409e-11
-4.07811e-10
-1.66898e-11
-4.01426e-10
-1.81042e-11
-3.94554e-10
-1.94807e-11
-3.87211e-10
-2.0815e-11
-3.79412e-10
-2.2104e-11
-3.71173e-10
-2.33457e-11
-3.62511e-10
-2.45375e-11
-3.53446e-10
-2.56763e-11
-3.43997e-10
-2.67587e-11
-3.34185e-10
-2.77821e-11
-3.24031e-10
-2.87443e-11
-3.13557e-10
-2.96422e-11
-3.02787e-10
-3.04733e-11
-2.91746e-10
-3.12355e-11
-2.80458e-10
-3.19264e-11
-2.6895e-10
-3.25436e-11
-2.57247e-10
-3.30847e-11
-2.45377e-10
-3.3547e-11
-2.33368e-10
-3.39291e-11
-2.21248e-10
-3.42294e-11
-2.09047e-10
-3.44459e-11
-1.96795e-10
-3.45769e-11
-1.84522e-10
-3.46209e-11
-1.7226e-10
-3.45769e-11
-1.60037e-10
-3.44442e-11
-1.47885e-10
-3.42219e-11
-1.35837e-10
-3.39086e-11
-1.23925e-10
-3.35039e-11
-1.1218e-10
-3.30076e-11
-1.00633e-10
-3.24196e-11
-8.93166e-11
-3.17404e-11
-7.82624e-11
-3.09705e-11
-6.75014e-11
-3.01101e-11
-5.70634e-11
-2.91602e-11
-4.69789e-11
-2.81227e-11
-3.72776e-11
-2.69997e-11
-2.79888e-11
-2.57935e-11
-1.91411e-11
-2.4506e-11
-1.07599e-11
-2.31398e-11
-2.87037e-12
-2.16992e-11
4.50205e-12
-2.01884e-11
1.13349e-11
-1.86112e-11
1.76082e-11
-1.69722e-11
2.33034e-11
-1.52773e-11
2.84041e-11
-1.35335e-11
3.28958e-11
-1.17484e-11
3.67665e-11
-9.9296e-12
4.00089e-11
-8.08443e-12
4.26191e-11
-6.2225e-12
4.45949e-11
-4.3559e-12
4.59387e-11
-2.49685e-12
4.66585e-11
-6.57442e-13
4.67669e-11
1.14838e-12
4.62811e-11
2.90431e-12
4.52252e-11
4.59218e-12
4.36285e-11
6.19211e-12
4.15277e-11
7.68262e-12
3.89674e-11
9.04025e-12
3.60004e-11
1.02387e-11
3.26873e-11
1.12486e-11
2.90985e-11
1.20379e-11
2.53147e-11
1.25728e-11
2.14258e-11
1.2817e-11
1.75315e-11
1.27327e-11
1.374e-11
1.22829e-11
1.0168e-11
1.14336e-11
6.9386e-12
1.01585e-11
4.17678e-12
8.45065e-12
2.00548e-12
6.3384e-12
5.60745e-13
3.89914e-12
1.27237e-12
5.42152e-13
1.24818e-12
1.82878e-12
-3.49167e-12
3.84039e-12
-9.56286e-12
6.57053e-12
-1.30808e-11
9.87293e-12
-1.49323e-11
1.35363e-11
-1.5901e-11
1.739e-11
-1.62956e-11
2.12666e-11
-1.62456e-11
2.50349e-11
-1.58014e-11
2.85738e-11
-1.4991e-11
3.17878e-11
-1.385e-11
3.45878e-11
-1.24093e-11
3.68987e-11
-1.07052e-11
3.86581e-11
-8.77396e-12
3.98125e-11
-6.65062e-12
4.03165e-11
-4.37063e-12
4.0136e-11
-1.96092e-12
3.92393e-11
5.45261e-13
3.76109e-11
3.12588e-12
3.52316e-11
5.75488e-12
3.20963e-11
8.41181e-12
2.82042e-11
1.10761e-11
2.35545e-11
1.37302e-11
1.81556e-11
1.63567e-11
1.20206e-11
1.89424e-11
5.16101e-12
2.14745e-11
-2.40202e-12
2.39397e-11
-1.06461e-11
2.63292e-11
-1.95506e-11
2.8632e-11
-2.90868e-11
3.08398e-11
-3.92231e-11
3.2947e-11
-4.99322e-11
3.49449e-11
-6.11802e-11
3.68285e-11
-7.29314e-11
3.85948e-11
-8.51529e-11
4.02372e-11
-9.78071e-11
4.17522e-11
-1.10855e-10
4.31383e-11
-1.24261e-10
4.43919e-11
-1.37987e-10
4.55113e-11
-1.51991e-10
4.64968e-11
-1.66235e-10
4.73463e-11
-1.80682e-10
4.80583e-11
-1.95288e-10
4.8636e-11
-2.10016e-10
4.90788e-11
-2.24827e-10
4.93862e-11
-2.39682e-10
4.95611e-11
-2.54541e-10
4.96049e-11
-2.69368e-10
4.95179e-11
-2.84124e-10
4.93032e-11
-2.98773e-10
4.8964e-11
-3.13278e-10
4.85017e-11
-3.27607e-10
4.79192e-11
-3.41721e-10
4.72198e-11
-3.55589e-10
4.64063e-11
-3.69179e-10
4.54821e-11
-3.82459e-10
4.44512e-11
-3.95397e-10
4.33172e-11
-4.07965e-10
4.20834e-11
-4.20136e-10
4.07531e-11
-4.31882e-10
3.9331e-11
-4.43175e-10
3.78214e-11
-4.53992e-10
3.62279e-11
-4.64312e-10
3.45552e-11
-4.74109e-10
3.28085e-11
-4.83364e-10
3.09914e-11
-4.92059e-10
2.91081e-11
-5.00173e-10
2.71633e-11
-5.0769e-10
2.51622e-11
-5.14594e-10
2.31087e-11
-5.20873e-10
2.10069e-11
-5.26513e-10
1.88626e-11
-5.31502e-10
1.66808e-11
-5.3583e-10
1.44653e-11
-5.39489e-10
1.22202e-11
-5.42472e-10
9.95117e-12
-5.44773e-10
7.66329e-12
-5.46388e-10
5.36076e-12
-5.47313e-10
3.04799e-12
-5.47547e-10
7.30352e-13
-5.47089e-10
-1.58736e-12
-5.45941e-10
-3.90126e-12
-5.44106e-10
-6.20673e-12
-5.41587e-10
-8.49832e-12
-5.38389e-10
-1.07711e-11
-5.34521e-10
-1.30209e-11
-5.2999e-10
-1.52439e-11
-5.24804e-10
-1.7435e-11
-5.18975e-10
-1.95888e-11
-5.12515e-10
-2.1701e-11
-5.05438e-10
-2.37677e-11
-4.97759e-10
-2.57843e-11
-4.89492e-10
-2.77464e-11
-4.80656e-10
-2.96497e-11
-4.71271e-10
-3.149e-11
-4.61355e-10
-3.3263e-11
-4.50929e-10
-3.49641e-11
-4.40015e-10
-3.65892e-11
-4.28638e-10
-3.81352e-11
-4.16821e-10
-3.95983e-11
-4.04591e-10
-4.09743e-11
-3.91974e-10
-4.22591e-11
-3.78999e-10
-4.3449e-11
-3.65694e-10
-4.4541e-11
-3.52089e-10
-4.55318e-11
-3.38214e-10
-4.64178e-11
-3.24103e-10
-4.71961e-11
-3.09787e-10
-4.78632e-11
-2.953e-10
-4.84166e-11
-2.80675e-10
-4.88541e-11
-2.65947e-10
-4.91732e-11
-2.51152e-10
-4.93712e-11
-2.36328e-10
-4.94465e-11
-2.21509e-10
-4.9397e-11
-2.06732e-10
-4.92216e-11
-1.92035e-10
-4.89192e-11
-1.77455e-10
-4.84885e-11
-1.63031e-10
-4.79286e-11
-1.48799e-10
-4.72394e-11
-1.34797e-10
-4.6421e-11
-1.21064e-10
-4.54738e-11
-1.07636e-10
-4.43983e-11
-9.45508e-11
-4.31955e-11
-8.18434e-11
-4.18673e-11
-6.95501e-11
-4.04159e-11
-5.77062e-11
-3.88438e-11
-4.63453e-11
-3.7154e-11
-3.55006e-11
-3.53501e-11
-2.52037e-11
-3.34364e-11
-1.5484e-11
-3.14181e-11
-6.37052e-12
-2.93014e-11
2.11044e-12
-2.70923e-11
9.93492e-12
-2.47973e-11
1.70811e-11
-2.24243e-11
2.35301e-11
-1.99831e-11
2.92657e-11
-1.7484e-11
3.42743e-11
-1.49379e-11
3.85467e-11
-1.23567e-11
4.20775e-11
-9.75397e-12
4.48659e-11
-7.14496e-12
4.69151e-11
-4.54679e-12
4.8234e-11
-1.97719e-12
4.8837e-11
5.44582e-13
4.87449e-11
2.99613e-12
4.79848e-11
5.3522e-12
4.65904e-11
7.58597e-12
4.4604e-11
9.66863e-12
4.20761e-11
1.15682e-11
3.90652e-11
1.32493e-11
3.56397e-11
1.46736e-11
3.18785e-11
1.57993e-11
2.78698e-11
1.65819e-11
2.37118e-11
1.69755e-11
1.9513e-11
1.69324e-11
1.53911e-11
1.64051e-11
1.14721e-11
1.53514e-11
7.89196e-12
1.37386e-11
4.79398e-12
1.15513e-11
2.32582e-12
8.80694e-12
6.56767e-13
5.56793e-12
1.92917e-12
7.66021e-13
4.81091e-13
2.38171e-12
-5.10905e-12
4.65827e-12
-1.18394e-11
7.57497e-12
-1.59996e-11
1.10042e-11
-1.83638e-11
1.47651e-11
-1.9659e-11
1.86724e-11
-2.02064e-11
2.25706e-11
-2.01431e-11
2.63128e-11
-1.95427e-11
2.97777e-11
-1.84571e-11
3.28585e-11
-1.693e-11
3.54593e-11
-1.50112e-11
3.75028e-11
-1.27479e-11
3.89151e-11
-1.0187e-11
3.96388e-11
-7.37671e-12
3.96279e-11
-4.3569e-12
3.88371e-11
-1.17225e-12
3.724e-11
2.14352e-12
3.48118e-11
5.55482e-12
3.15349e-11
9.0302e-12
2.74037e-11
1.25428e-11
2.24132e-11
1.60665e-11
1.65654e-11
1.95763e-11
9.87108e-12
2.30521e-11
2.34033e-12
2.64736e-11
-6.01002e-12
2.98237e-11
-1.51568e-11
3.30872e-11
-2.50777e-11
3.62499e-11
-3.57453e-11
3.92986e-11
-4.71277e-11
4.22231e-11
-5.91933e-11
4.50125e-11
-7.19069e-11
4.76583e-11
-8.52296e-11
5.01528e-11
-9.9124e-11
5.24895e-11
-1.13551e-10
5.46624e-11
-1.28466e-10
5.66676e-11
-1.43828e-10
5.85005e-11
-1.59594e-10
6.01568e-11
-1.75718e-10
6.1636e-11
-1.92157e-10
6.29356e-11
-2.08866e-10
6.40538e-11
-2.25798e-10
6.49908e-11
-2.42908e-10
6.57472e-11
-2.60152e-10
6.63224e-11
-2.77485e-10
6.67183e-11
-2.9486e-10
6.69372e-11
-3.12235e-10
6.69799e-11
-3.29566e-10
6.68485e-11
-3.46809e-10
6.65466e-11
-3.63922e-10
6.60773e-11
-3.80864e-10
6.54433e-11
-3.97595e-10
6.46487e-11
-4.14073e-10
6.36981e-11
-4.3026e-10
6.25946e-11
-4.46121e-10
6.13425e-11
-4.61617e-10
5.99473e-11
-4.76712e-10
5.84138e-11
-4.91376e-10
5.67462e-11
-5.05573e-10
5.49501e-11
-5.19273e-10
5.30315e-11
-5.32446e-10
5.09949e-11
-5.45064e-10
4.88456e-11
-5.57099e-10
4.65907e-11
-5.68526e-10
4.42357e-11
-5.7932e-10
4.17857e-11
-5.8946e-10
3.92473e-11
-5.98924e-10
3.66271e-11
-6.07691e-10
3.39304e-11
-6.15746e-10
3.11632e-11
-6.23071e-10
2.8332e-11
-6.29651e-10
2.54433e-11
-6.35473e-10
2.25031e-11
-6.40526e-10
1.95174e-11
-6.44799e-10
1.64933e-11
-6.48285e-10
1.34373e-11
-6.50975e-10
1.0355e-11
-6.52867e-10
7.25217e-12
-6.53955e-10
4.13605e-12
-6.54238e-10
1.01375e-12
-6.53716e-10
-2.10909e-12
-6.5239e-10
-5.22721e-12
-6.50263e-10
-8.33366e-12
-6.4734e-10
-1.14212e-11
-6.43626e-10
-1.44841e-11
-6.39131e-10
-1.75167e-11
-6.33863e-10
-2.05125e-11
-6.27832e-10
-2.3465e-11
-6.21052e-10
-2.63681e-11
-6.13536e-10
-2.92162e-11
-6.05301e-10
-3.20035e-11
-5.96363e-10
-3.4723e-11
-5.86741e-10
-3.73685e-11
-5.76454e-10
-3.99354e-11
-5.65526e-10
-4.24184e-11
-5.53978e-10
-4.48112e-11
-5.41835e-10
-4.71075e-11
-5.29122e-10
-4.9302e-11
-5.15867e-10
-5.13901e-11
-5.02099e-10
-5.33668e-11
-4.87845e-10
-5.52266e-11
-4.7314e-10
-5.69643e-11
-4.58014e-10
-5.85753e-11
-4.42501e-10
-6.00548e-11
-4.26634e-10
-6.13985e-11
-4.1045e-10
-6.26017e-11
-3.93985e-10
-6.36602e-11
-3.77279e-10
-6.45705e-11
-3.60367e-10
-6.53285e-11
-3.4329e-10
-6.59308e-11
-3.26089e-10
-6.63745e-11
-3.08804e-10
-6.66566e-11
-2.91477e-10
-6.67743e-11
-2.74148e-10
-6.67256e-11
-2.56862e-10
-6.65082e-11
-2.39661e-10
-6.61206e-11
-2.22589e-10
-6.55615e-11
-2.05688e-10
-6.483e-11
-1.89001e-10
-6.39258e-11
-1.72573e-10
-6.28495e-11
-1.56446e-10
-6.1601e-11
-1.40664e-10
-6.01811e-11
-1.25267e-10
-5.85917e-11
-1.10299e-10
-5.68353e-11
-9.57991e-11
-5.49151e-11
-8.18087e-11
-5.28343e-11
-6.83657e-11
-5.05967e-11
-5.55078e-11
-4.82074e-11
-4.32712e-11
-4.5673e-11
-3.16903e-11
-4.29999e-11
-2.07972e-11
-4.01952e-11
-1.06212e-11
-3.72678e-11
-1.19025e-12
-3.42277e-11
7.47054e-12
-3.10855e-11
1.53399e-11
-2.78533e-11
2.23997e-11
-2.45444e-11
2.86351e-11
-2.11734e-11
3.40357e-11
-1.77569e-11
3.85951e-11
-1.43136e-11
4.23116e-11
-1.08629e-11
4.51901e-11
-7.42647e-12
4.72409e-11
-4.0281e-12
4.84792e-11
-6.94144e-13
4.89275e-11
2.54672e-12
4.86169e-11
5.66251e-12
4.75846e-11
8.61822e-12
4.58762e-11
1.13767e-11
4.3547e-11
1.38974e-11
4.06609e-11
1.61354e-11
3.72915e-11
1.80421e-11
3.35233e-11
1.95665e-11
2.94513e-11
2.0654e-11
2.51797e-11
2.12477e-11
2.08238e-11
2.12891e-11
1.65095e-11
2.07205e-11
1.23717e-11
1.94892e-11
8.55685e-12
1.75528e-11
5.22499e-12
1.48844e-11
2.54755e-12
1.14853e-11
7.22046e-13
7.3934e-12
2.65125e-12
8.73247e-13
-3.94655e-13
2.68082e-12
-6.91534e-12
5.12153e-12
-1.42815e-11
8.15044e-12
-1.90283e-11
1.1634e-11
-2.18468e-11
1.53959e-11
-2.34212e-11
1.92564e-11
-2.40661e-11
2.30553e-11
-2.39407e-11
2.66442e-11
-2.31344e-11
2.98996e-11
-2.17109e-11
3.27035e-11
-1.97363e-11
3.49631e-11
-1.72703e-11
3.65903e-11
-1.43736e-11
3.75111e-11
-1.11087e-11
3.76645e-11
-7.52837e-12
3.69959e-11
-3.6899e-12
3.54644e-11
3.58407e-13
3.30365e-11
4.57119e-12
2.96868e-11
8.90399e-12
2.53989e-11
1.33189e-11
2.01622e-11
1.77798e-11
1.39736e-11
2.22537e-11
6.83748e-12
2.67121e-11
-1.23875e-12
3.11277e-11
-1.02407e-11
3.54748e-11
-2.01485e-11
3.97325e-11
-3.09412e-11
4.38799e-11
-4.25913e-11
4.78987e-11
-5.50664e-11
5.17745e-11
-6.83345e-11
5.54911e-11
-8.23598e-11
5.90361e-11
-9.71004e-11
6.23996e-11
-1.12517e-10
6.55699e-11
-1.28566e-10
6.8538e-11
-1.45202e-10
7.12989e-11
-1.62378e-10
7.38446e-11
-1.80049e-10
7.61694e-11
-1.98162e-10
7.82713e-11
-2.1667e-10
8.0145e-11
-2.35524e-10
8.17885e-11
-2.54672e-10
8.32012e-11
-2.74063e-10
8.43825e-11
-2.93647e-10
8.5331e-11
-3.13374e-10
8.60482e-11
-3.33191e-10
8.65359e-11
-3.53049e-10
8.67954e-11
-3.729e-10
8.68292e-11
-3.92691e-10
8.66406e-11
-4.12377e-10
8.62329e-11
-4.31909e-10
8.56095e-11
-4.51241e-10
8.47749e-11
-4.70326e-10
8.37341e-11
-4.8912e-10
8.24922e-11
-5.0758e-10
8.10542e-11
-5.25664e-10
7.94257e-11
-5.43328e-10
7.7613e-11
-5.60536e-10
7.56216e-11
-5.77248e-10
7.3458e-11
-5.93427e-10
7.11296e-11
-6.09038e-10
6.8643e-11
-6.24048e-10