/*--------------------------------*- C++ -*----------------------------------*\
  =========                 |
  \\      /  F ield         | OpenFOAM: The Open Source CFD Toolbox
   \\    /   O peration     | Website:  https://openfoam.org
    \\  /    A nd           | Version:  7
     \\/     M anipulation  |
\*---------------------------------------------------------------------------*/
FoamFile
{
    version     2.0;
    format      ascii;
    class       volScalarField;
    location    "0.3625";
    object      p;
}
// * * * * * * * * * * * * * * * * * * * * * * * * * * * * * * * * * * * * * //

dimensions      [0 2 -2 0 0 0 0];

internalField   nonuniform List<scalar> 
51200
(
-4.13649e-09
1.89984e-06
4.71774e-06
7.42472e-06
9.59676e-06
1.13907e-05
1.288e-05
1.41161e-05
1.51331e-05
1.59524e-05
1.65927e-05
1.70727e-05
1.7406e-05
1.76016e-05
1.76673e-05
1.76093e-05
1.7436e-05
1.71574e-05
1.67795e-05
1.63079e-05
1.57493e-05
1.51085e-05
1.43939e-05
1.36112e-05
1.27646e-05
1.18585e-05
1.08974e-05
9.88639e-06
8.82886e-06
7.72787e-06
6.58725e-06
5.40831e-06
4.19123e-06
2.93997e-06
1.65912e-06
3.51323e-07
-9.79741e-07
-2.33053e-06
-3.69935e-06
-5.0846e-06
-6.48452e-06
-7.89686e-06
-9.31869e-06
-1.07485e-05
-1.21862e-05
-1.363e-05
-1.50777e-05
-1.65295e-05
-1.79866e-05
-1.94478e-05
-2.09119e-05
-2.23776e-05
-2.3844e-05
-2.53106e-05
-2.67765e-05
-2.82412e-05
-2.97052e-05
-3.11687e-05
-3.26312e-05
-3.40905e-05
-3.55461e-05
-3.70006e-05
-3.84557e-05
-3.99104e-05
-4.13631e-05
-4.28132e-05
-4.42608e-05
-4.57069e-05
-4.71525e-05
-4.85989e-05
-5.00467e-05
-5.14957e-05
-5.29447e-05
-5.4393e-05
-5.58415e-05
-5.72926e-05
-5.87487e-05
-6.02105e-05
-6.16759e-05
-6.31438e-05
-6.46149e-05
-6.60907e-05
-6.75725e-05
-6.90613e-05
-7.0557e-05
-7.20595e-05
-7.35691e-05
-7.50859e-05
-7.66104e-05
-7.81422e-05
-7.96811e-05
-8.12277e-05
-8.27835e-05
-8.43493e-05
-8.59244e-05
-8.75076e-05
-8.9098e-05
-9.06952e-05
-9.22999e-05
-9.39131e-05
-9.55348e-05
-9.71652e-05
-9.88032e-05
-0.000100448
-0.0001021
-0.000103759
-0.000105424
-0.000107094
-0.000108767
-0.000110444
-0.000112124
-0.000113808
-0.000115493
-0.000117177
-0.00011886
-0.00012054
-0.000122217
-0.000123887
-0.000125551
-0.000127204
-0.000128845
-0.000130472
-0.000132084
-0.00013368
-0.000135258
-0.000136815
-0.000138345
-0.000139843
-0.000141311
-0.000142749
-0.000144154
-0.00014552
-0.000146844
-0.000148123
-0.000149355
-0.000150536
-0.000151663
-0.000152731
-0.000153739
-0.000154684
-0.000155564
-0.000156377
-0.000157116
-0.000157778
-0.000158362
-0.000158865
-0.000159287
-0.000159627
-0.000159882
-0.000160051
-0.000160137
-0.000160144
-0.000160076
-0.000159939
-0.000159744
-0.000159504
-0.000159242
-0.000158991
-0.000158797
-0.000158706
1.69925e-06
3.53542e-06
5.79733e-06
7.96516e-06
9.8327e-06
1.14163e-05
1.27547e-05
1.38832e-05
1.48224e-05
1.55882e-05
1.61925e-05
1.66457e-05
1.69615e-05
1.71496e-05
1.72158e-05
1.71664e-05
1.70079e-05
1.67454e-05
1.63876e-05
1.59422e-05
1.5412e-05
1.48042e-05
1.41236e-05
1.33743e-05
1.25617e-05
1.16899e-05
1.07636e-05
9.78678e-06
8.76243e-06
7.69465e-06
6.5862e-06
5.43834e-06
4.25323e-06
3.03382e-06
1.78293e-06
5.03616e-07
-8.00543e-07
-2.12618e-06
-3.47111e-06
-4.83426e-06
-6.21392e-06
-7.60662e-06
-9.01e-06
-1.04237e-05
-1.18466e-05
-1.32765e-05
-1.47128e-05
-1.61559e-05
-1.76056e-05
-1.90609e-05
-2.05211e-05
-2.19858e-05
-2.34538e-05
-2.49232e-05
-2.63923e-05
-2.78609e-05
-2.93298e-05
-3.07997e-05
-3.227e-05
-3.37395e-05
-3.52079e-05
-3.66765e-05
-3.81455e-05
-3.9614e-05
-4.10826e-05
-4.25517e-05
-4.40203e-05
-4.54875e-05
-4.69534e-05
-4.84186e-05
-4.98851e-05
-5.1355e-05
-5.28274e-05
-5.43004e-05
-5.57734e-05
-5.72485e-05
-5.8728e-05
-6.02122e-05
-6.17004e-05
-6.31921e-05
-6.46881e-05
-6.61892e-05
-6.76953e-05
-6.9207e-05
-7.07246e-05
-7.22483e-05
-7.37792e-05
-7.53173e-05
-7.68619e-05
-7.84125e-05
-7.99694e-05
-8.15338e-05
-8.31067e-05
-8.46881e-05
-8.6277e-05
-8.78726e-05
-8.94752e-05
-9.10839e-05
-9.26984e-05
-9.43188e-05
-9.59455e-05
-9.75796e-05
-9.92213e-05
-0.00010087
-0.000102524
-0.000104182
-0.000105842
-0.000107505
-0.000109172
-0.000110841
-0.000112513
-0.000114186
-0.000115858
-0.000117528
-0.000119194
-0.000120855
-0.000122512
-0.000124161
-0.000125801
-0.000127431
-0.000129047
-0.000130647
-0.000132231
-0.000133797
-0.000135342
-0.000136866
-0.000138363
-0.00013983
-0.000141265
-0.000142667
-0.000144036
-0.000145367
-0.000146655
-0.000147897
-0.000149092
-0.000150239
-0.000151334
-0.000152372
-0.000153351
-0.000154267
-0.000155117
-0.000155903
-0.00015662
-0.000157266
-0.000157838
-0.000158332
-0.000158749
-0.000159088
-0.000159349
-0.000159533
-0.000159642
-0.000159679
-0.00015965
-0.000159562
-0.000159423
-0.000159247
-0.000159051
-0.000158862
-0.000158709
-0.000158619
4.14165e-06
5.50002e-06
7.10359e-06
8.76265e-06
1.03021e-05
1.1665e-05
1.28506e-05
1.38663e-05
1.47229e-05
1.54285e-05
1.59892e-05
1.64118e-05
1.6706e-05
1.68795e-05
1.69394e-05
1.68914e-05
1.67384e-05
1.64858e-05
1.61412e-05
1.57103e-05
1.51998e-05
1.4614e-05
1.39563e-05
1.32318e-05
1.24439e-05
1.15977e-05
1.06983e-05
9.74803e-06
8.75045e-06
7.70917e-06
6.62544e-06
5.50174e-06
4.34124e-06
3.14616e-06
1.91927e-06
6.63156e-07
-6.19338e-07
-1.92446e-06
-3.25044e-06
-4.59669e-06
-5.96044e-06
-7.33815e-06
-8.72844e-06
-1.01303e-05
-1.15412e-05
-1.29601e-05
-1.43881e-05
-1.58251e-05
-1.72698e-05
-1.87212e-05
-2.01784e-05
-2.16419e-05
-2.3111e-05
-2.4583e-05
-2.60557e-05
-2.75288e-05
-2.90037e-05
-3.04803e-05
-3.19574e-05
-3.34357e-05
-3.49161e-05
-3.6398e-05
-3.78798e-05
-3.93606e-05
-4.08418e-05
-4.23251e-05
-4.38104e-05
-4.5296e-05
-4.67807e-05
-4.82641e-05
-4.97483e-05
-5.1236e-05
-5.2727e-05
-5.42197e-05
-5.57142e-05
-5.72115e-05
-5.87121e-05
-6.02159e-05
-6.17232e-05
-6.32346e-05
-6.47512e-05
-6.62736e-05
-6.78012e-05
-6.93336e-05
-7.08706e-05
-7.2413e-05
-7.39622e-05
-7.55183e-05
-7.70802e-05
-7.8647e-05
-8.02195e-05
-8.17994e-05
-8.33874e-05
-8.49829e-05
-8.65845e-05
-8.81914e-05
-8.98039e-05
-9.14222e-05
-9.30458e-05
-9.46743e-05
-9.63071e-05
-9.7945e-05
-9.95891e-05
-0.000101239
-0.000102895
-0.000104553
-0.000106213
-0.000107872
-0.000109534
-0.000111197
-0.000112863
-0.000114527
-0.000116189
-0.000117847
-0.0001195
-0.000121148
-0.000122788
-0.00012442
-0.000126042
-0.000127651
-0.000129246
-0.000130827
-0.00013239
-0.000133933
-0.000135452
-0.000136947
-0.000138416
-0.000139857
-0.000141266
-0.000142642
-0.000143982
-0.000145284
-0.000146544
-0.000147758
-0.000148924
-0.000150042
-0.000151109
-0.000152124
-0.00015308
-0.000153975
-0.000154805
-0.00015557
-0.000156269
-0.000156901
-0.000157462
-0.00015795
-0.000158364
-0.000158703
-0.00015897
-0.000159165
-0.00015929
-0.000159349
-0.000159346
-0.000159287
-0.000159183
-0.000159042
-0.00015888
-0.000158715
-0.000158563
-0.000158434
6.3796e-06
7.31654e-06
8.46044e-06
9.7134e-06
1.09515e-05
1.21e-05
1.31301e-05
1.40293e-05
1.4797e-05
1.54342e-05
1.59442e-05
1.6332e-05
1.66002e-05
1.67549e-05
1.68033e-05
1.67479e-05
1.65941e-05
1.63463e-05
1.60081e-05
1.55874e-05
1.50898e-05
1.45181e-05
1.38772e-05
1.31706e-05
1.24015e-05
1.15754e-05
1.06961e-05
9.76698e-06
8.7915e-06
7.77148e-06
6.70822e-06
5.60418e-06
4.46246e-06
3.28587e-06
2.07722e-06
8.39017e-07
-4.25766e-07
-1.7144e-06
-3.02575e-06
-4.3578e-06
-5.7072e-06
-7.07247e-06
-8.45253e-06
-9.84488e-06
-1.12468e-05
-1.26579e-05
-1.40798e-05
-1.55121e-05
-1.69537e-05
-1.84032e-05
-1.98598e-05
-2.13235e-05
-2.27933e-05
-2.42668e-05
-2.57429e-05
-2.72216e-05
-2.87033e-05
-3.01865e-05
-3.16703e-05
-3.31567e-05
-3.46472e-05
-3.61406e-05
-3.76351e-05
-3.91297e-05
-4.06246e-05
-4.21211e-05
-4.362e-05
-4.51202e-05
-4.6621e-05
-4.81225e-05
-4.96256e-05
-5.11307e-05
-5.26376e-05
-5.41467e-05
-5.56595e-05
-5.71767e-05
-5.86973e-05
-6.02204e-05
-6.17465e-05
-6.32764e-05
-6.48114e-05
-6.63523e-05
-6.78985e-05
-6.94492e-05
-7.10045e-05
-7.25651e-05
-7.41317e-05
-7.5704e-05
-7.7281e-05
-7.88625e-05
-8.04498e-05
-8.20443e-05
-8.36462e-05
-8.52548e-05
-8.68688e-05
-8.84871e-05
-9.01094e-05
-9.1736e-05
-9.33672e-05
-9.50029e-05
-9.66424e-05
-9.8286e-05
-9.99342e-05
-0.000101587
-0.000103244
-0.000104902
-0.00010656
-0.000108219
-0.000109878
-0.000111538
-0.000113198
-0.000114856
-0.00011651
-0.000118158
-0.0001198
-0.000121436
-0.000123065
-0.000124683
-0.000126289
-0.000127881
-0.000129458
-0.000131021
-0.000132566
-0.000134091
-0.000135591
-0.000137063
-0.000138508
-0.000139926
-0.000141313
-0.000142667
-0.000143984
-0.000145262
-0.000146498
-0.000147689
-0.000148833
-0.000149928
-0.000150973
-0.000151965
-0.000152901
-0.000153778
-0.000154593
-0.000155344
-0.000156029
-0.000156649
-0.000157201
-0.000157684
-0.000158095
-0.000158435
-0.000158706
-0.000158908
-0.000159045
-0.000159119
-0.000159132
-0.000159091
-0.000159004
-0.000158879
-0.000158728
-0.000158563
-0.000158387
-0.000158198
8.08415e-06
8.84296e-06
9.72205e-06
1.06935e-05
1.16918e-05
1.26511e-05
1.35332e-05
1.43185e-05
1.49954e-05
1.55602e-05
1.60151e-05
1.63613e-05
1.65987e-05
1.67325e-05
1.67638e-05
1.6697e-05
1.65378e-05
1.62888e-05
1.59546e-05
1.55412e-05
1.5052e-05
1.44913e-05
1.38628e-05
1.31701e-05
1.24172e-05
1.16076e-05
1.07454e-05
9.83448e-06
8.87709e-06
7.87496e-06
6.82988e-06
5.74362e-06
4.61911e-06
3.45894e-06
2.26584e-06
1.04347e-06
-2.05646e-07
-1.48068e-06
-2.7798e-06
-4.09927e-06
-5.43676e-06
-6.79153e-06
-8.16199e-06
-9.54536e-06
-1.094e-05
-1.23457e-05
-1.3763e-05
-1.51913e-05
-1.663e-05
-1.80784e-05
-1.9536e-05
-2.10018e-05
-2.24731e-05
-2.39484e-05
-2.54283e-05
-2.69129e-05
-2.8401e-05
-2.98914e-05
-3.13839e-05
-3.288e-05
-3.43803e-05
-3.58836e-05
-3.73894e-05
-3.88975e-05
-4.04076e-05
-4.19194e-05
-4.34327e-05
-4.49467e-05
-4.64622e-05
-4.79809e-05
-4.95027e-05
-5.10261e-05
-5.25503e-05
-5.40768e-05
-5.56075e-05
-5.7143e-05
-5.86821e-05
-6.0224e-05
-6.17692e-05
-6.33187e-05
-6.4873e-05
-6.64325e-05
-6.79965e-05
-6.95648e-05
-7.11379e-05
-7.27168e-05
-7.4301e-05
-7.58893e-05
-7.74813e-05
-7.90777e-05
-8.06803e-05
-8.22897e-05
-8.39054e-05
-8.55267e-05
-8.71529e-05
-8.87829e-05
-9.04162e-05
-9.20523e-05
-9.36914e-05
-9.53337e-05
-9.69792e-05
-9.86288e-05
-0.000100283
-0.00010194
-0.000103599
-0.000105257
-0.000106915
-0.000108573
-0.000110231
-0.000111888
-0.000113544
-0.000115196
-0.000116843
-0.000118483
-0.000120116
-0.000121742
-0.000123359
-0.000124964
-0.000126557
-0.000128136
-0.000129698
-0.000131243
-0.000132771
-0.000134277
-0.000135759
-0.000137213
-0.000138638
-0.000140034
-0.000141401
-0.000142734
-0.00014403
-0.000145286
-0.000146499
-0.000147669
-0.000148793
-0.000149869
-0.000150895
-0.000151868
-0.000152786
-0.000153645
-0.000154445
-0.000155183
-0.000155858
-0.000156468
-0.000157012
-0.000157489
-0.000157898
-0.000158239
-0.000158513
-0.000158721
-0.000158865
-0.000158948
-0.000158973
-0.000158943
-0.000158865
-0.000158746
-0.000158594
-0.000158419
-0.00015821
-0.000157955
9.47156e-06
1.01399e-05
1.08653e-05
1.16525e-05
1.24742e-05
1.32771e-05
1.40299e-05
1.47081e-05
1.52987e-05
1.57943e-05
1.61925e-05
1.6493e-05
1.66973e-05
1.68044e-05
1.68166e-05
1.67366e-05
1.65673e-05
1.63135e-05
1.59799e-05
1.55693e-05
1.50861e-05
1.45334e-05
1.39138e-05
1.32322e-05
1.24918e-05
1.16957e-05
1.08483e-05
9.95251e-06
9.00981e-06
8.0221e-06
6.99147e-06
5.91998e-06
4.81015e-06
3.66406e-06
2.48484e-06
1.27635e-06
3.99805e-08
-1.2233e-06
-2.51087e-06
-3.81962e-06
-5.14801e-06
-6.49462e-06
-7.85653e-06
-9.23202e-06
-1.0621e-05
-1.20229e-05
-1.34373e-05
-1.48633e-05
-1.63001e-05
-1.77482e-05
-1.92074e-05
-2.06753e-05
-2.21491e-05
-2.36281e-05
-2.51132e-05
-2.66033e-05
-2.80969e-05
-2.95943e-05
-3.10965e-05
-3.26037e-05
-3.4115e-05
-3.5629e-05
-3.71458e-05
-3.86662e-05
-4.01905e-05
-4.17177e-05
-4.32462e-05
-4.47753e-05
-4.63064e-05
-4.78414e-05
-4.938e-05
-5.09203e-05
-5.24626e-05
-5.40081e-05
-5.55576e-05
-5.71112e-05
-5.86681e-05
-6.02281e-05
-6.17918e-05
-6.33604e-05
-6.4934e-05
-6.65122e-05
-6.80942e-05
-6.96803e-05
-7.12712e-05
-7.28677e-05
-7.44688e-05
-7.60729e-05
-7.76801e-05
-7.92918e-05
-8.09097e-05
-8.25342e-05
-8.4164e-05
-8.57982e-05
-8.74363e-05
-8.90776e-05
-9.07219e-05
-9.23684e-05
-9.40164e-05
-9.56661e-05
-9.73181e-05
-9.89739e-05
-0.000100634
-0.000102296
-0.000103957
-0.000105618
-0.000107276
-0.000108934
-0.000110592
-0.000112247
-0.0001139
-0.000115547
-0.000117188
-0.000118821
-0.000120447
-0.000122063
-0.00012367
-0.000125264
-0.000126845
-0.000128411
-0.000129961
-0.000131493
-0.000133005
-0.000134494
-0.000135958
-0.000137395
-0.000138803
-0.000140181
-0.000141528
-0.000142843
-0.00014412
-0.000145357
-0.00014655
-0.0001477
-0.000148805
-0.000149864
-0.000150874
-0.000151831
-0.000152733
-0.000153577
-0.000154363
-0.00015509
-0.000155755
-0.000156357
-0.000156894
-0.000157366
-0.000157772
-0.000158113
-0.000158389
-0.000158601
-0.000158751
-0.00015884
-0.000158871
-0.000158846
-0.000158772
-0.000158652
-0.000158493
-0.000158301
-0.000158055
-0.000157735
1.06581e-05
1.12809e-05
1.19175e-05
1.2583e-05
1.32759e-05
1.39582e-05
1.46e-05
1.51824e-05
1.56941e-05
1.61244e-05
1.64677e-05
1.6724e-05
1.68914e-05
1.69691e-05
1.69596e-05
1.68629e-05
1.66819e-05
1.64215e-05
1.60842e-05
1.56733e-05
1.51925e-05
1.46439e-05
1.40309e-05
1.33569e-05
1.26255e-05
1.18405e-05
1.10048e-05
1.01209e-05
9.19029e-06
8.2142e-06
7.19519e-06
6.13545e-06
5.037e-06
3.90274e-06
2.73573e-06
1.53807e-06
3.11347e-07
-9.42078e-07
-2.21938e-06
-3.51934e-06
-4.84059e-06
-6.1803e-06
-7.53552e-06
-8.90534e-06
-1.029e-05
-1.16891e-05
-1.31018e-05
-1.45269e-05
-1.5964e-05
-1.74138e-05
-1.88749e-05
-2.03445e-05
-2.18215e-05
-2.33057e-05
-2.47967e-05
-2.62929e-05
-2.77929e-05
-2.92978e-05
-3.08093e-05
-3.23268e-05
-3.38493e-05
-3.53753e-05
-3.69044e-05
-3.84378e-05
-3.99756e-05
-4.15165e-05
-4.30594e-05
-4.46045e-05
-4.61529e-05
-4.77046e-05
-4.92589e-05
-5.08155e-05
-5.23752e-05
-5.39394e-05
-5.55077e-05
-5.70796e-05
-5.86546e-05
-6.02327e-05
-6.18148e-05
-6.34019e-05
-6.4994e-05
-6.65902e-05
-6.819e-05
-6.97942e-05
-7.14032e-05
-7.3017e-05
-7.46342e-05
-7.62537e-05
-7.78765e-05
-7.95039e-05
-8.1137e-05
-8.27761e-05
-8.442e-05
-8.60676e-05
-8.77181e-05
-8.93707e-05
-9.10256e-05
-9.26821e-05
-9.43393e-05
-9.59975e-05
-9.76576e-05
-9.93206e-05
-0.000100986
-0.000102653
-0.000104318
-0.000105981
-0.000107642
-0.000109301
-0.000110959
-0.000112614
-0.000114264
-0.000115907
-0.000117543
-0.000119171
-0.000120791
-0.000122401
-0.000123999
-0.000125584
-0.000127153
-0.000128708
-0.000130246
-0.000131767
-0.000133266
-0.000134741
-0.000136189
-0.00013761
-0.000139003
-0.000140366
-0.000141696
-0.000142993
-0.000144253
-0.000145473
-0.00014665
-0.000147784
-0.000148873
-0.000149916
-0.00015091
-0.000151853
-0.000152741
-0.000153573
-0.000154347
-0.000155063
-0.00015572
-0.000156315
-0.000156847
-0.000157314
-0.000157717
-0.000158057
-0.000158334
-0.000158549
-0.000158703
-0.000158795
-0.000158828
-0.000158805
-0.000158729
-0.000158604
-0.000158434
-0.000158222
-0.00015794
-0.000157561
1.1724e-05
1.23272e-05
1.29081e-05
1.34901e-05
1.40895e-05
1.46768e-05
1.52285e-05
1.57299e-05
1.61695e-05
1.65386e-05
1.68316e-05
1.70445e-05
1.71747e-05
1.72223e-05
1.71879e-05
1.70721e-05
1.6878e-05
1.66083e-05
1.62653e-05
1.58516e-05
1.53696e-05
1.48228e-05
1.42134e-05
1.35441e-05
1.28195e-05
1.20424e-05
1.1215e-05
1.03397e-05
9.41793e-06
8.45105e-06
7.44131e-06
6.39035e-06
5.30084e-06
4.17638e-06
3.01918e-06
1.82995e-06
6.10839e-07
-6.34436e-07
-1.90417e-06
-3.19777e-06
-4.51275e-06
-5.84647e-06
-7.19715e-06
-8.56369e-06
-9.946e-06
-1.13434e-05
-1.27549e-05
-1.41802e-05
-1.56197e-05
-1.70725e-05
-1.8536e-05
-2.00084e-05
-2.14896e-05
-2.29793e-05
-2.44761e-05
-2.59788e-05
-2.74866e-05
-2.90008e-05
-3.05221e-05
-3.20495e-05
-3.35823e-05
-3.51202e-05
-3.66628e-05
-3.82102e-05
-3.97618e-05
-4.1316e-05
-4.28727e-05
-4.44336e-05
-4.59989e-05
-4.75674e-05
-4.9138e-05
-5.07114e-05
-5.22888e-05
-5.38711e-05
-5.54576e-05
-5.70473e-05
-5.86401e-05
-6.02365e-05
-6.18374e-05
-6.3443e-05
-6.5053e-05
-6.66666e-05
-6.8284e-05
-6.99064e-05
-7.15335e-05
-7.31641e-05
-7.47971e-05
-7.64321e-05
-7.80706e-05
-7.9714e-05
-8.13624e-05
-8.30159e-05
-8.46736e-05
-8.63346e-05
-8.7998e-05
-8.96628e-05
-9.13286e-05
-9.29948e-05
-9.46611e-05
-9.63284e-05
-9.79976e-05
-9.96691e-05
-0.000101342
-0.000103013
-0.000104683
-0.000106349
-0.000108013
-0.000109674
-0.000111333
-0.000112988
-0.000114637
-0.000116278
-0.00011791
-0.000119534
-0.000121149
-0.000122753
-0.000124345
-0.000125921
-0.000127482
-0.000129027
-0.000130556
-0.000132066
-0.000133554
-0.000135016
-0.000136451
-0.000137859
-0.000139238
-0.000140587
-0.000141904
-0.000143186
-0.00014443
-0.000145634
-0.000146797
-0.000147917
-0.000148993
-0.000150022
-0.000151003
-0.000151932
-0.000152808
-0.000153629
-0.000154394
-0.000155102
-0.000155751
-0.00015634
-0.000156867
-0.000157331
-0.000157731
-0.00015807
-0.000158347
-0.000158563
-0.000158719
-0.000158813
-0.000158847
-0.000158822
-0.000158741
-0.000158608
-0.000158424
-0.000158192
-0.000157877
-0.000157448
1.27227e-05
1.33175e-05
1.38639e-05
1.43875e-05
1.49151e-05
1.54277e-05
1.59076e-05
1.63404e-05
1.67166e-05
1.70305e-05
1.7275e-05
1.74454e-05
1.75405e-05
1.75578e-05
1.74977e-05
1.73621e-05
1.71527e-05
1.68713e-05
1.65205e-05
1.61012e-05
1.56162e-05
1.50683e-05
1.44596e-05
1.37932e-05
1.30728e-05
1.23009e-05
1.14793e-05
1.06095e-05
9.69367e-06
8.7333e-06
7.72993e-06
6.68558e-06
5.60311e-06
4.486e-06
3.3354e-06
2.15257e-06
9.40365e-07
-2.98791e-07
-1.56385e-06
-2.85289e-06
-4.16287e-06
-5.4921e-06
-6.83971e-06
-8.20475e-06
-9.58654e-06
-1.09837e-05
-1.23955e-05
-1.38228e-05
-1.52655e-05
-1.67214e-05
-1.81882e-05
-1.96652e-05
-2.11522e-05
-2.26479e-05
-2.41503e-05
-2.56596e-05
-2.71762e-05
-2.87005e-05
-3.02324e-05
-3.17705e-05
-3.3314e-05
-3.48637e-05
-3.64196e-05
-3.79811e-05
-3.95465e-05
-4.11146e-05
-4.26862e-05
-4.42628e-05
-4.58441e-05
-4.74285e-05
-4.90157e-05
-5.06067e-05
-5.22022e-05
-5.38025e-05
-5.54068e-05
-5.70142e-05
-5.86246e-05
-6.02392e-05
-6.18587e-05
-6.34827e-05
-6.51103e-05
-6.67414e-05
-6.83767e-05
-7.00171e-05
-7.16618e-05
-7.3309e-05
-7.49577e-05
-7.66084e-05
-7.82628e-05
-7.99221e-05
-8.1586e-05
-8.3254e-05
-8.49256e-05
-8.65998e-05
-8.8276e-05
-8.99535e-05
-9.16308e-05
-9.33073e-05
-9.49833e-05
-9.66602e-05
-9.83389e-05
-0.000100019
-0.000101699
-0.000103377
-0.000105051
-0.000106722
-0.000108389
-0.000110054
-0.000111715
-0.00011337
-0.000115019
-0.000116658
-0.000118289
-0.000119911
-0.000121523
-0.000123122
-0.000124707
-0.000126277
-0.000127832
-0.00012937
-0.00013089
-0.00013239
-0.000133868
-0.00013532
-0.000136744
-0.00013814
-0.000139507
-0.000140844
-0.000142149
-0.000143418
-0.000144649
-0.00014584
-0.000146991
-0.000148099
-0.000149163
-0.000150181
-0.00015115
-0.000152067
-0.000152932
-0.000153744
-0.000154502
-0.000155204
-0.000155848
-0.00015643
-0.000156952
-0.000157412
-0.000157811
-0.000158149
-0.000158426
-0.000158643
-0.000158799
-0.000158893
-0.000158926
-0.000158898
-0.000158812
-0.000158669
-0.000158472
-0.000158221
-0.000157877
-0.000157406
1.36888e-05
1.42811e-05
1.48041e-05
1.52851e-05
1.5758e-05
1.62116e-05
1.66318e-05
1.70071e-05
1.733e-05
1.75935e-05
1.77922e-05
1.79228e-05
1.79828e-05
1.797e-05
1.78852e-05
1.77294e-05
1.75034e-05
1.72091e-05
1.68478e-05
1.64212e-05
1.59309e-05
1.53792e-05
1.47693e-05
1.41037e-05
1.33849e-05
1.26156e-05
1.17969e-05
1.09303e-05
1.0018e-05
9.06127e-06
8.06167e-06
7.02205e-06
5.94519e-06
4.8325e-06
3.68562e-06
2.50764e-06
1.3005e-06
6.50748e-08
-1.19675e-06
-2.48246e-06
-3.78952e-06
-5.11631e-06
-6.46242e-06
-7.82732e-06
-9.20954e-06
-1.06077e-05
-1.20221e-05
-1.34533e-05
-1.48998e-05
-1.63591e-05
-1.78305e-05
-1.93132e-05
-2.08067e-05
-2.2309e-05
-2.38182e-05
-2.53353e-05
-2.68611e-05
-2.83957e-05
-2.99383e-05
-3.14876e-05
-3.3043e-05
-3.46054e-05
-3.61747e-05
-3.77494e-05
-3.93281e-05
-4.09108e-05
-4.24985e-05
-4.40911e-05
-4.56879e-05
-4.7288e-05
-4.88919e-05
-5.05007e-05
-5.21144e-05
-5.37326e-05
-5.53545e-05
-5.69795e-05
-5.86079e-05
-6.02408e-05
-6.18786e-05
-6.35203e-05
-6.51654e-05
-6.68144e-05
-6.8468e-05
-7.01264e-05
-7.1788e-05
-7.34514e-05
-7.51161e-05
-7.67829e-05
-7.84534e-05
-8.01283e-05
-8.18077e-05
-8.34906e-05
-8.51763e-05
-8.68641e-05
-8.85533e-05
-9.0243e-05
-9.19321e-05
-9.36195e-05
-9.53061e-05
-9.69937e-05
-9.86825e-05
-0.000100372
-0.00010206
-0.000103743
-0.000105423
-0.000107099
-0.000108772
-0.000110441
-0.000112105
-0.000113761
-0.00011541
-0.00011705
-0.00011868
-0.000120301
-0.000121911
-0.000123507
-0.000125087
-0.000126651
-0.0001282
-0.000129733
-0.000131247
-0.00013274
-0.000134209
-0.000135651
-0.000137067
-0.000138453
-0.00013981
-0.000141137
-0.000142431
-0.000143689
-0.000144909
-0.00014609
-0.00014723
-0.000148328
-0.000149382
-0.00015039
-0.000151349
-0.000152257
-0.000153114
-0.000153918
-0.00015467
-0.000155366
-0.000156005
-0.000156584
-0.000157101
-0.000157558
-0.000157954
-0.000158292
-0.000158569
-0.000158786
-0.000158942
-0.000159035
-0.000159066
-0.000159036
-0.000158944
-0.000158792
-0.000158582
-0.000158314
-0.000157946
-0.000157441
1.46484e-05
1.52398e-05
1.57442e-05
1.61932e-05
1.66256e-05
1.70313e-05
1.74006e-05
1.77275e-05
1.80033e-05
1.82217e-05
1.83795e-05
1.84722e-05
1.8498e-05
1.84564e-05
1.8347e-05
1.81703e-05
1.79274e-05
1.76186e-05
1.72455e-05
1.68098e-05
1.6312e-05
1.5755e-05
1.51419e-05
1.44749e-05
1.37555e-05
1.2986e-05
1.21678e-05
1.13021e-05
1.03908e-05
9.435e-06
8.43707e-06
7.40052e-06
6.32662e-06
5.21604e-06
4.07178e-06
2.89678e-06
1.69184e-06
4.58161e-07
-8.01562e-07
-2.08523e-06
-3.39105e-06
-4.71762e-06
-6.06444e-06
-7.43031e-06
-8.81375e-06
-1.02146e-05
-1.16334e-05
-1.30696e-05
-1.45205e-05
-1.59846e-05
-1.74619e-05
-1.89513e-05
-2.04513e-05
-2.19605e-05
-2.34778e-05
-2.50042e-05
-2.65404e-05
-2.80855e-05
-2.96387e-05
-3.11995e-05
-3.27678e-05
-3.43439e-05
-3.59269e-05
-3.75146e-05
-3.91067e-05
-4.07043e-05
-4.23081e-05
-4.39166e-05
-4.55291e-05
-4.71454e-05
-4.87665e-05
-5.03931e-05
-5.20249e-05
-5.36607e-05
-5.52999e-05
-5.69426e-05
-5.85894e-05
-6.02409e-05
-6.18966e-05
-6.35557e-05
-6.52185e-05
-6.68857e-05
-6.85579e-05
-7.02341e-05
-7.19123e-05
-7.35917e-05
-7.52725e-05
-7.69557e-05
-7.86424e-05
-8.03331e-05
-8.20277e-05
-8.37256e-05
-8.54258e-05
-8.71278e-05
-8.88305e-05
-9.05324e-05
-9.22329e-05
-9.39317e-05
-9.56299e-05
-9.73289e-05
-9.90283e-05
-0.000100727
-0.000102422
-0.000104114
-0.0001058
-0.000107483
-0.000109161
-0.000110835
-0.000112502
-0.000114161
-0.000115811
-0.000117452
-0.000119084
-0.000120705
-0.000122313
-0.000123907
-0.000125484
-0.000127045
-0.00012859
-0.000130118
-0.000131627
-0.000133114
-0.000134576
-0.000136011
-0.000137418
-0.000138798
-0.000140147
-0.000141465
-0.000142749
-0.000143998
-0.000145209
-0.000146382
-0.000147514
-0.000148603
-0.000149649
-0.000150648
-0.000151598
-0.000152499
-0.00015335
-0.000154149
-0.000154895
-0.000155587
-0.000156222
-0.000156797
-0.000157311
-0.000157766
-0.000158161
-0.000158498
-0.000158776
-0.000158993
-0.000159149
-0.000159241
-0.00015927
-0.000159235
-0.000159139
-0.000158979
-0.000158758
-0.000158476
-0.000158088
-0.000157557
1.5623e-05
1.62097e-05
1.66984e-05
1.71229e-05
1.75226e-05
1.78891e-05
1.8217e-05
1.85004e-05
1.87331e-05
1.89116e-05
1.90314e-05
1.90888e-05
1.90831e-05
1.90139e-05
1.88803e-05
1.86829e-05
1.84219e-05
1.80977e-05
1.77115e-05
1.72645e-05
1.67582e-05
1.61946e-05
1.55766e-05
1.49058e-05
1.41837e-05
1.34117e-05
1.25916e-05
1.17246e-05
1.08116e-05
9.85496e-06
8.85755e-06
7.82132e-06
6.74725e-06
5.63748e-06
4.4946e-06
3.32013e-06
2.1152e-06
8.81767e-07
-3.77465e-07
-1.6606e-06
-2.96664e-06
-4.29482e-06
-5.64396e-06
-7.01197e-06
-8.39834e-06
-9.80394e-06
-1.12284e-05
-1.26697e-05
-1.4126e-05
-1.55966e-05
-1.70812e-05
-1.8578e-05
-2.00851e-05
-2.16018e-05
-2.31283e-05
-2.4665e-05
-2.62122e-05
-2.77684e-05
-2.93328e-05
-3.09058e-05
-3.24875e-05
-3.40775e-05
-3.56739e-05
-3.72752e-05
-3.88819e-05
-4.04949e-05
-4.21143e-05
-4.37385e-05
-4.53669e-05
-4.7e-05
-4.86387e-05
-5.02833e-05
-5.19329e-05
-5.35862e-05
-5.52428e-05
-5.69035e-05
-5.85688e-05
-6.02387e-05
-6.19122e-05
-6.35889e-05
-6.52697e-05
-6.69556e-05
-6.86461e-05
-7.03397e-05
-7.20345e-05
-7.37301e-05
-7.54272e-05
-7.71269e-05
-7.883e-05
-8.05366e-05
-8.22465e-05
-8.39593e-05
-8.56743e-05
-8.73909e-05
-8.91074e-05
-9.0822e-05
-9.25342e-05
-9.42449e-05
-9.59552e-05
-9.7666e-05
-9.93762e-05
-0.000101084
-0.000102788
-0.000104487
-0.000106182
-0.000107872
-0.000109557
-0.000111236
-0.000112908
-0.00011457
-0.000116223
-0.000117866
-0.0001195
-0.000121122
-0.00012273
-0.000124322
-0.000125898
-0.000127457
-0.000129
-0.000130524
-0.000132029
-0.000133512
-0.000134968
-0.000136397
-0.000137799
-0.000139172
-0.000140516
-0.000141827
-0.000143105
-0.000144346
-0.000145549
-0.000146715
-0.00014784
-0.000148923
-0.000149962
-0.000150954
-0.000151897
-0.000152793
-0.000153639
-0.000154434
-0.000155177
-0.000155865
-0.000156496
-0.000157068
-0.000157581
-0.000158034
-0.000158429
-0.000158766
-0.000159044
-0.000159262
-0.000159417
-0.000159509
-0.000159536
-0.000159499
-0.000159398
-0.000159233
-0.000159004
-0.00015871
-0.000158307
-0.000157755
1.66255e-05
1.72052e-05
1.76796e-05
1.80815e-05
1.84526e-05
1.8788e-05
1.90798e-05
1.93247e-05
1.95198e-05
1.96609e-05
1.97452e-05
1.97705e-05
1.97354e-05
1.96396e-05
1.94826e-05
1.92642e-05
1.89846e-05
1.86444e-05
1.82437e-05
1.77843e-05
1.72683e-05
1.66969e-05
1.6072e-05
1.53956e-05
1.46685e-05
1.38918e-05
1.30678e-05
1.21968e-05
1.12802e-05
1.03217e-05
9.32272e-06
8.28408e-06
7.20826e-06
6.0979e-06
4.95404e-06
3.77796e-06
2.57168e-06
1.33709e-06
7.66938e-08
-1.20786e-06
-2.51624e-06
-3.8474e-06
-5.19941e-06
-6.57107e-06
-7.96281e-06
-9.37486e-06
-1.08054e-05
-1.22526e-05
-1.37158e-05
-1.51942e-05
-1.66868e-05
-1.81915e-05
-1.97066e-05
-2.12321e-05
-2.27689e-05
-2.43167e-05
-2.58752e-05
-2.7443e-05
-2.90197e-05
-3.0606e-05
-3.22018e-05
-3.38052e-05
-3.54148e-05
-3.70303e-05
-3.86526e-05
-4.02815e-05
-4.19163e-05
-4.35561e-05
-4.52008e-05
-4.68513e-05
-4.8508e-05
-5.01705e-05
-5.18377e-05
-5.35086e-05
-5.5183e-05
-5.68619e-05
-5.85458e-05
-6.02337e-05
-6.1925e-05
-6.36197e-05
-6.53191e-05
-6.70238e-05
-6.87323e-05
-7.04431e-05
-7.21545e-05
-7.38666e-05
-7.55803e-05
-7.72965e-05
-7.90161e-05
-8.0739e-05
-8.24645e-05
-8.41925e-05
-8.59226e-05
-8.76537e-05
-8.93839e-05
-9.11114e-05
-9.28361e-05
-9.45593e-05
-9.62823e-05
-9.80052e-05
-9.97263e-05
-0.000101444
-0.000103157
-0.000104865
-0.000106568
-0.000108267
-0.000109959
-0.000111644
-0.000113321
-0.000114987
-0.000116644
-0.000118292
-0.000119929
-0.000121553
-0.000123161
-0.000124753
-0.000126329
-0.000127888
-0.00012943
-0.000130953
-0.000132454
-0.000133933
-0.000135386
-0.000136811
-0.000138208
-0.000139577
-0.000140916
-0.000142223
-0.000143494
-0.00014473
-0.000145928
-0.000147088
-0.000148208
-0.000149286
-0.00015032
-0.000151307
-0.000152245
-0.000153136
-0.000153979
-0.000154771
-0.000155512
-0.000156198
-0.000156827
-0.000157397
-0.000157909
-0.000158362
-0.000158757
-0.000159095
-0.000159373
-0.000159591
-0.000159747
-0.000159839
-0.000159866
-0.000159827
-0.000159724
-0.000159554
-0.000159319
-0.000159018
-0.000158604
-0.000158038
1.76646e-05
1.82355e-05
1.86954e-05
1.90769e-05
1.94235e-05
1.97287e-05
1.99882e-05
2.02001e-05
2.03608e-05
2.04678e-05
2.05199e-05
2.05155e-05
2.04529e-05
2.03317e-05
2.01515e-05
1.99117e-05
1.96133e-05
1.9256e-05
1.88401e-05
1.83679e-05
1.78408e-05
1.72601e-05
1.66271e-05
1.59429e-05
1.52089e-05
1.44259e-05
1.35951e-05
1.27179e-05
1.17969e-05
1.08345e-05
9.83125e-06
8.7888e-06
7.71015e-06
6.59706e-06
5.44995e-06
4.27057e-06
3.06159e-06
1.82475e-06
5.61712e-07
-7.26485e-07
-2.03908e-06
-3.37412e-06
-4.73021e-06
-6.10757e-06
-7.50639e-06
-8.92571e-06
-1.03632e-05
-1.18178e-05
-1.32893e-05
-1.47765e-05
-1.62775e-05
-1.77907e-05
-1.93148e-05
-2.08506e-05
-2.23988e-05
-2.39583e-05
-2.55282e-05
-2.71082e-05
-2.86984e-05
-3.02991e-05
-3.1909e-05
-3.3526e-05
-3.51492e-05
-3.67798e-05
-3.8418e-05
-4.00628e-05
-4.17132e-05
-4.33689e-05
-4.50305e-05
-4.66988e-05
-4.83736e-05
-5.0054e-05
-5.17386e-05
-5.34272e-05
-5.51201e-05
-5.68177e-05
-5.85198e-05
-6.02254e-05
-6.19345e-05
-6.36478e-05
-6.53664e-05
-6.70898e-05
-6.88162e-05
-7.05439e-05
-7.22721e-05
-7.4001e-05
-7.57316e-05
-7.74647e-05
-7.92008e-05
-8.09397e-05
-8.26813e-05
-8.44254e-05
-8.61709e-05
-8.79167e-05
-8.96603e-05
-9.14008e-05
-9.31387e-05
-9.48753e-05
-9.66113e-05
-9.83466e-05
-0.000100079
-0.000101807
-0.00010353
-0.000105247
-0.00010696
-0.000108668
-0.000110368
-0.00011206
-0.000113742
-0.000115414
-0.000117077
-0.000118729
-0.00012037
-0.000121997
-0.000123607
-0.000125201
-0.000126777
-0.000128337
-0.000129879
-0.000131402
-0.000132902
-0.000134377
-0.000135828
-0.000137251
-0.000138646
-0.000140013
-0.000141348
-0.000142651
-0.000143919
-0.00014515
-0.000146344
-0.000147501
-0.000148617
-0.000149691
-0.000150721
-0.000151705
-0.00015264
-0.000153528
-0.000154368
-0.000155159
-0.000155898
-0.000156584
-0.000157212
-0.000157782
-0.000158294
-0.000158747
-0.000159144
-0.000159483
-0.000159763
-0.000159982
-0.000160138
-0.000160231
-0.000160259
-0.000160221
-0.000160116
-0.000159944
-0.000159705
-0.000159399
-0.000158978
-0.000158404
1.87475e-05
1.93057e-05
1.9751e-05
2.01145e-05
2.04366e-05
2.07145e-05
2.0945e-05
2.11258e-05
2.12552e-05
2.13318e-05
2.13542e-05
2.13217e-05
2.1233e-05
2.10875e-05
2.08844e-05
2.06237e-05
2.03055e-05
1.99304e-05
1.94995e-05
1.90135e-05
1.84743e-05
1.78829e-05
1.72398e-05
1.65461e-05
1.58036e-05
1.5012e-05
1.41725e-05
1.32883e-05
1.23613e-05
1.13923e-05
1.0383e-05
9.3359e-06
8.25253e-06
7.13439e-06
5.98252e-06
4.79854e-06
3.58535e-06
2.34478e-06
1.07733e-06
-2.16246e-07
-1.53408e-06
-2.87415e-06
-4.23644e-06
-5.6216e-06
-7.02854e-06
-8.45554e-06
-9.90111e-06
-1.13647e-05
-1.28458e-05
-1.43424e-05
-1.58524e-05
-1.73748e-05
-1.89094e-05
-2.04568e-05
-2.2017e-05
-2.35885e-05
-2.51707e-05
-2.67639e-05
-2.83685e-05
-2.99838e-05
-3.16077e-05
-3.32387e-05
-3.48769e-05
-3.65232e-05
-3.81772e-05
-3.98378e-05
-4.1504e-05
-4.31763e-05
-4.48555e-05
-4.65419e-05
-4.82349e-05
-4.9933e-05
-5.16352e-05
-5.33419e-05
-5.50536e-05
-5.677e-05
-5.84902e-05
-6.02134e-05