/*--------------------------------*- C++ -*----------------------------------*\
  =========                 |
  \\      /  F ield         | OpenFOAM: The Open Source CFD Toolbox
   \\    /   O peration     | Website:  https://openfoam.org
    \\  /    A nd           | Version:  7
     \\/     M anipulation  |
\*---------------------------------------------------------------------------*/
FoamFile
{
    version     2.0;
    format      ascii;
    class       surfaceScalarField;
    location    "0.3625";
    object      phi;
}
// * * * * * * * * * * * * * * * * * * * * * * * * * * * * * * * * * * * * * //

dimensions      [0 3 -1 0 0 0 0];

internalField   nonuniform List<scalar> 
101920
(
-9.55774e-14
1.05079e-13
-4.76517e-13
3.82433e-13
-4.96819e-13
2.09585e-14
-2.9801e-13
-2.00039e-13
1.41663e-13
-4.42414e-13
7.65597e-13
-6.25451e-13
1.52268e-12
-7.58318e-13
2.37533e-12
-8.53243e-13
3.29438e-12
-9.18972e-13
4.25737e-12
-9.6121e-13
5.24556e-12
-9.87082e-13
6.24369e-12
-9.98428e-13
7.24014e-12
-9.96423e-13
8.22353e-12
-9.8344e-13
9.18427e-12
-9.60505e-13
1.01147e-11
-9.2897e-13
1.10069e-11
-8.91968e-13
1.18556e-11
-8.48607e-13
1.26569e-11
-7.99924e-13
1.34055e-11
-7.47784e-13
1.40981e-11
-6.91129e-13
1.47316e-11
-6.33246e-13
1.53051e-11
-5.72863e-13
1.5816e-11
-5.10933e-13
1.62637e-11
-4.48429e-13
1.66483e-11
-3.84636e-13
1.69681e-11
-3.2061e-13
1.72241e-11
-2.57077e-13
1.74177e-11
-1.93942e-13
1.75489e-11
-1.32041e-13
1.76192e-11
-7.15737e-14
1.7631e-11
-1.23514e-14
1.75847e-11
4.525e-14
1.74818e-11
1.01681e-13
1.73249e-11
1.56489e-13
1.7116e-11
2.0852e-13
1.68579e-11
2.58006e-13
1.65535e-11
3.0518e-13
1.62053e-11
3.49077e-13
1.58167e-11
3.89622e-13
1.53904e-11
4.27605e-13
1.49287e-11
4.62441e-13
1.44347e-11
4.93575e-13
1.39119e-11
5.2198e-13
1.33631e-11
5.48123e-13
1.27909e-11
5.71419e-13
1.21992e-11
5.91622e-13
1.15914e-11
6.08359e-13
1.09696e-11
6.21565e-13
1.03372e-11
6.32154e-13
9.69694e-12
6.39904e-13
9.05205e-12
6.44634e-13
8.40598e-12
6.46446e-13
7.76131e-12
6.45363e-13
7.12062e-12
6.41419e-13
6.4866e-12
6.34553e-13
5.86208e-12
6.2509e-13
5.25004e-12
6.13162e-13
4.65235e-12
5.98358e-13
4.07111e-12
5.8077e-13
3.50966e-12
5.60912e-13
2.97002e-12
5.3915e-13
2.45334e-12
5.15627e-13
1.96163e-12
4.90403e-13
1.49707e-12
4.63705e-13
1.06175e-12
4.35392e-13
6.57763e-13
4.04899e-13
2.86447e-13
3.72449e-13
-5.12087e-14
3.38782e-13
-3.54203e-13
3.03837e-13
-6.21671e-13
2.67582e-13
-8.52377e-13
2.30654e-13
-1.0451e-12
1.93081e-13
-1.19927e-12
1.54394e-13
-1.31427e-12
1.14816e-13
-1.38939e-12
7.49777e-14
-1.42461e-12
3.50672e-14
-1.42032e-12
-5.001e-15
-1.37616e-12
-4.49961e-14
-1.2914e-12
-8.48567e-14
-1.16647e-12
-1.246e-13
-1.00177e-12
-1.64097e-13
-7.97556e-13
-2.03271e-13
-5.54965e-13
-2.41911e-13
-2.7492e-13
-2.79843e-13
4.1685e-14
-3.16947e-13
3.9398e-13
-3.52705e-13
7.81266e-13
-3.86923e-13
1.20207e-12
-4.20119e-13
1.65471e-12
-4.52596e-13
2.13759e-12
-4.83789e-13
2.64934e-12
-5.12812e-13
3.1885e-12
-5.39468e-13
3.75281e-12
-5.64158e-13
4.34027e-12
-5.87302e-13
4.94889e-12
-6.08801e-13
5.57636e-12
-6.27921e-13
6.22113e-12
-6.44549e-13
6.88115e-12
-6.59254e-13
7.55366e-12
-6.72004e-13
8.23616e-12
-6.82529e-13
8.92542e-12
-6.90436e-13
9.61894e-12
-6.9505e-13
1.03151e-11
-6.96421e-13
1.1011e-11
-6.9501e-13
1.1704e-11
-6.91341e-13
1.23911e-11
-6.85948e-13
1.30686e-11
-6.78132e-13
1.37343e-11
-6.66719e-13
1.43857e-11
-6.51714e-13
1.50194e-11
-6.33611e-13
1.56325e-11
-6.12628e-13
1.62219e-11
-5.88805e-13
1.67846e-11
-5.62022e-13
1.73181e-11
-5.32499e-13
1.78195e-11
-5.00631e-13
1.82854e-11
-4.6597e-13
1.87136e-11
-4.28056e-13
1.91013e-11
-3.8727e-13
1.94457e-11
-3.43991e-13
1.97447e-11
-2.98568e-13
1.9996e-11
-2.51169e-13
2.0197e-11
-2.01298e-13
2.03458e-11
-1.48786e-13
2.04394e-11
-9.3893e-14
2.0475e-11
-3.65661e-14
2.04526e-11
2.26108e-14
2.03715e-11
8.23033e-14
2.02293e-11
1.42492e-13
2.00245e-11
2.04222e-13
1.97564e-11
2.67458e-13
1.94246e-11
3.31276e-13
1.90298e-11
3.94989e-13
1.85722e-11
4.57965e-13
1.80513e-11
5.20073e-13
1.74682e-11
5.81679e-13
1.68254e-11
6.42345e-13
1.61244e-11
7.01136e-13
1.53676e-11
7.57455e-13
1.45583e-11
8.10407e-13
1.36994e-11
8.59129e-13
1.27945e-11
9.0368e-13
1.18496e-11
9.43824e-13
1.08711e-11
9.7811e-13
9.86535e-12
1.00537e-12
8.84055e-12
1.02496e-12
7.80578e-12
1.03546e-12
6.77039e-12
1.03524e-12
5.74633e-12
1.02332e-12
4.74802e-12
9.98263e-13
3.79026e-12
9.58021e-13
2.88927e-12
9.00805e-13
2.06413e-12
8.24974e-13
1.33622e-12
7.28202e-13
7.28205e-13
6.081e-13
2.64078e-13
4.63969e-13
-3.39627e-14
2.98205e-13
-1.53723e-13
1.19643e-13
-1.09051e-13
-4.54143e-14
-1.09328e-13
3.47717e-13
-2.41322e-13
5.74422e-13
1.47693e-13
9.37393e-13
-3.3886e-13
1.74481e-12
-1.0041e-12
2.96925e-12
-1.66344e-12
4.56898e-12
-2.22181e-12
6.4778e-12
-2.66548e-12
8.63045e-12
-3.00494e-12
1.09631e-11
-3.25477e-12
1.34259e-11
-3.42569e-12
1.59715e-11
-3.53275e-12
1.8557e-11
-3.58424e-12
2.11481e-11
-3.58772e-12
2.37132e-11
-3.54935e-12
2.62255e-11
-3.47332e-12
2.86611e-11
-3.36624e-12
3.10002e-11
-3.23209e-12
3.32252e-11
-3.07461e-12
3.53204e-11
-2.89799e-12
3.72751e-11
-2.70346e-12
3.90772e-11
-2.49559e-12
4.07198e-11
-2.2764e-12
4.21954e-11
-2.04848e-12
4.34992e-11
-1.8149e-12
4.46285e-11
-1.57635e-12
4.55799e-11
-1.33507e-12
4.63532e-11
-1.0929e-12
4.69492e-11
-8.51131e-13
4.73681e-11
-6.11502e-13
4.76128e-11
-3.7525e-13
4.76868e-11
-1.43549e-13
4.75936e-11
8.24526e-14
4.73379e-11
3.02521e-13
4.69248e-11
5.16085e-13
4.63603e-11
7.21442e-13
4.56507e-11
9.1784e-13
4.48029e-11
1.10499e-12
4.38243e-11
1.28194e-12
4.27229e-11
1.4483e-12
4.15068e-11
1.60424e-12
4.01836e-11
1.74959e-12
3.87623e-11
1.88373e-12
3.72517e-11
2.0058e-12
3.56596e-11
2.11564e-12
3.39943e-11
2.21368e-12
3.22654e-11
2.30045e-12
3.04815e-11
2.3754e-12
2.86515e-11
2.43818e-12
2.67844e-11
2.489e-12
2.48889e-11
2.52808e-12
2.29742e-11
2.55505e-12
2.10481e-11
2.57012e-12
1.91193e-11
2.57413e-12
1.71965e-11
2.56758e-12
1.52878e-11
2.54993e-12
1.34008e-11
2.521e-12
1.15429e-11
2.48203e-12
9.72213e-12
2.43372e-12
7.94581e-12
2.37538e-12
6.22029e-12
2.3073e-12
4.55257e-12
2.23044e-12
2.94866e-12
2.1451e-12
1.41435e-12
2.05164e-12
-4.3681e-14
1.95038e-12
-1.42046e-12
1.84138e-12
-2.71191e-12
1.72535e-12
-3.91238e-12
1.6034e-12
-5.01692e-12
1.47611e-12
-6.0223e-12
1.34365e-12
-6.92495e-12
1.20614e-12
-7.72116e-12
1.06414e-12
-8.40846e-12
9.18471e-13
-8.98482e-12
7.69447e-13
-9.44787e-12
6.17307e-13
-9.79548e-12
4.62913e-13
-1.00264e-11
3.0697e-13
-1.014e-11
1.49614e-13
-1.01355e-11
-8.7996e-15
-1.00125e-11
-1.67444e-13
-9.77098e-12
-3.25965e-13
-9.41225e-12
-4.84002e-13
-8.93732e-12
-6.40375e-13
-8.34656e-12
-7.9419e-13
-7.64217e-12
-9.45455e-13
-6.82664e-12
-1.09419e-12
-5.90245e-12
-1.24009e-12
-4.87292e-12
-1.38216e-12
-3.74123e-12
-1.51923e-12
-2.51069e-12
-1.65109e-12
-1.18499e-12
-1.77796e-12
2.31288e-13
-1.89956e-12
1.73282e-12
-2.01487e-12
3.31474e-12
-2.12279e-12
4.97202e-12
-2.2228e-12
6.69975e-12
-2.31508e-12
8.49224e-12
-2.40007e-12
1.0342e-11
-2.47754e-12
1.22426e-11
-2.54632e-12
1.41883e-11
-2.60569e-12
1.61723e-11
-2.65546e-12
1.81877e-11
-2.69583e-12
2.02267e-11
-2.7273e-12
2.22809e-11
-2.7493e-12
2.43434e-11
-2.76054e-12
2.64062e-11
-2.76049e-12
2.84617e-11
-2.749e-12
3.05026e-11
-2.72656e-12
3.252e-11
-2.69375e-12
3.45047e-11
-2.64993e-12
3.64488e-11
-2.59438e-12
3.83437e-11
-2.52732e-12
4.01813e-11
-2.44893e-12
4.19532e-11
-2.35922e-12
4.36503e-11
-2.25837e-12
4.52646e-11
-2.14634e-12
4.67883e-11
-2.02343e-12
4.82128e-11
-1.89012e-12
4.95302e-11
-1.74599e-12
5.07332e-11
-1.59089e-12
5.1814e-11
-1.42553e-12
5.27658e-11
-1.2504e-12
5.35818e-11
-1.06601e-12
5.42545e-11
-8.72883e-13
5.47786e-11
-6.71256e-13
5.51484e-11
-4.61896e-13
5.53574e-11
-2.45663e-13
5.54006e-11
-2.26138e-14
5.52749e-11
2.06599e-13
5.49772e-11
4.40237e-13
5.4504e-11
6.77468e-13
5.38534e-11
9.18037e-13
5.30239e-11
1.16041e-12
5.20154e-11
1.40286e-12
5.08296e-11
1.64415e-12
4.94681e-11
1.88246e-12
4.7933e-11
2.11616e-12
4.6229e-11
2.34445e-12
4.43617e-11
2.56596e-12
4.23383e-11
2.77855e-12
4.01684e-11
2.9799e-12
3.78627e-11
3.1669e-12
3.54328e-11
3.33603e-12
3.28927e-11
3.48468e-12
3.02598e-11
3.61053e-12
2.75534e-11
3.71029e-12
2.47957e-11
3.78046e-12
2.20126e-11
3.81728e-12
1.9232e-11
3.81579e-12
1.64849e-11
3.77041e-12
1.38071e-11
3.67608e-12
1.12383e-11
3.52776e-12
8.82132e-12
3.3193e-12
6.6025e-12
3.04461e-12
4.63117e-12
2.69937e-12
2.95771e-12
2.28101e-12
1.62971e-12
1.79119e-12
6.8475e-13
1.24266e-12
1.37004e-13
6.67663e-13
-4.62467e-14
1.38413e-13
-1.55579e-13
3.17875e-13
-5.58507e-13
1.15409e-12
-6.85789e-13
2.27285e-12
-1.46113e-12
3.86146e-12
-2.59339e-12
5.94322e-12
-3.74645e-12
8.48542e-12
-4.76647e-12
1.14326e-11
-5.6105e-12
1.4709e-11
-6.27989e-12
1.82414e-11
-6.78467e-12
2.1958e-11
-7.14345e-12
2.57961e-11
-7.37053e-12
2.96961e-11
-7.48331e-12
3.36038e-11
-7.49541e-12
3.74731e-11
-7.41734e-12
4.12611e-11
-7.26116e-12
4.49312e-11
-7.03667e-12
4.8453e-11
-6.75247e-12
5.17975e-11
-6.41779e-12
5.49411e-11
-6.03988e-12
5.78634e-11
-5.62539e-12
6.05484e-11
-5.18021e-12
6.29818e-11
-4.70995e-12
6.51529e-11
-4.22084e-12
6.70545e-11
-3.71644e-12
6.86792e-11
-3.20209e-12
7.00238e-11
-2.68144e-12
7.10881e-11
-2.15737e-12
7.18706e-11
-1.63456e-12
7.23732e-11
-1.11584e-12
7.26007e-11
-6.03423e-13
7.25567e-11
-1.00692e-13
7.22472e-11
3.90625e-13
7.16807e-11
8.69015e-13
7.08647e-11
1.33186e-12
6.98087e-11
1.7774e-12
6.85234e-11
2.20428e-12
6.7019e-11
2.61042e-12
6.53073e-11
2.9945e-12
6.34009e-11
3.35594e-12
6.1312e-11
3.69371e-12
5.90532e-11
4.00726e-12
5.66389e-11
4.29684e-12
5.4083e-11
4.56124e-12
5.13983e-11
4.79966e-12
4.85997e-11
5.01241e-12
4.57016e-11
5.19901e-12
4.27175e-11
5.35925e-12
3.96617e-11
5.49324e-12
3.65489e-11
5.60148e-12
3.33931e-11
5.68388e-12
3.02088e-11
5.74009e-12
2.70093e-11
5.77045e-12
2.38083e-11
5.7759e-12
2.06192e-11
5.75715e-12
1.74556e-11
5.71435e-12
1.43304e-11
5.64765e-12
1.1255e-11
5.55795e-12
8.24136e-12
5.44643e-12
5.30246e-12
5.31361e-12
2.44913e-12
5.16011e-12
-3.08532e-13
4.98697e-12
-2.96016e-12
4.79531e-12
-5.49577e-12
4.58645e-12
-7.90546e-12
4.36093e-12
-1.01808e-11
4.11844e-12
-1.23144e-11
3.86004e-12
-1.42981e-11
3.5879e-12
-1.61244e-11
3.30324e-12
-1.77876e-11
3.00678e-12
-1.92815e-11
2.69982e-12
-2.06003e-11
2.38355e-12
-2.174e-11
2.05858e-12
-2.26968e-11
1.72586e-12
-2.34667e-11
1.38684e-12
-2.40467e-11
1.04284e-12
-2.44354e-11
6.94957e-13
-2.4631e-11
3.44359e-13
-2.4632e-11
-7.7201e-15
-2.44383e-11
-3.60303e-13
-2.40503e-11
-7.12712e-13
-2.34692e-11
-1.06401e-12
-2.26968e-11
-1.41234e-12
-2.17349e-11
-1.75597e-12
-2.05866e-11
-2.09402e-12
-1.92554e-11
-2.42559e-12
-1.77448e-11
-2.74981e-12
-1.606e-11
-3.06588e-12
-1.4207e-11
-3.37236e-12
-1.21915e-11
-3.66777e-12
-1.00194e-11
-3.95105e-12
-7.69729e-12
-4.22147e-12
-5.23328e-12
-4.47838e-12
-2.63561e-12
-4.72053e-12
8.71993e-14
-4.94637e-12
2.92655e-12
-5.15501e-12
5.87345e-12
-5.34631e-12
8.91726e-12
-5.52032e-12
1.2047e-11
-5.67608e-12
1.52523e-11
-5.81189e-12
1.85216e-11
-5.92667e-12
2.18441e-11
-6.01983e-12
2.52084e-11
-6.09131e-12
2.86019e-11
-6.14121e-12
3.20121e-11
-6.16881e-12
3.54256e-11
-6.17328e-12
3.8829e-11
-6.15371e-12
4.22103e-11
-6.10917e-12
4.55564e-11
-6.03988e-12
4.88533e-11
-5.94627e-12
5.20871e-11
-5.82774e-12
5.52444e-11
-5.68399e-12
5.83118e-11
-5.51534e-12
6.12757e-11
-5.32187e-12
6.4122e-11
-5.10387e-12
6.68372e-11
-4.86153e-12
6.94084e-11
-4.5946e-12
7.1823e-11
-4.30375e-12
7.40677e-11
-3.98985e-12
7.613e-11
-3.65291e-12
7.7998e-11
-3.29363e-12
7.96606e-11
-2.91322e-12
8.11066e-11
-2.51231e-12
8.23247e-11
-2.09165e-12
8.33055e-11
-1.65246e-12
8.40402e-11
-1.19609e-12
8.45206e-11
-7.24597e-13
8.47382e-11
-2.39845e-13
8.46861e-11
2.57398e-13
8.43596e-11
7.65632e-13
8.37551e-11
1.28195e-12
8.28693e-11
1.80398e-12
8.16999e-11
2.32948e-12
8.02465e-11
2.85527e-12
7.85107e-11
3.37858e-12
7.64959e-11
3.89663e-12
7.42077e-11
4.40541e-12
7.16529e-11
4.90073e-12
6.88401e-11
5.37922e-12
6.57812e-11
5.83701e-12
6.24905e-11
6.26926e-12
5.89851e-11
6.67074e-12
5.52852e-11
7.03544e-12
5.1414e-11
7.35643e-12
4.73979e-11
7.62714e-12
4.32671e-11
7.84124e-12
3.90563e-11
7.99136e-12
3.48047e-11
8.06888e-12
3.05555e-11
8.06477e-12
2.63568e-11
7.96924e-12
2.2262e-11
7.77154e-12
1.83282e-11
7.46142e-12
1.4618e-11
7.02931e-12
1.1198e-11
6.46549e-12
8.13583e-12
5.76242e-12
5.49767e-12
4.9188e-12
3.34475e-12
3.94356e-12
1.7242e-12
2.86349e-12
6.55259e-13
1.73681e-12
1.14143e-13
6.80086e-13
-4.13453e-14
4.42778e-13
-1.00236e-12
1.60912e-12
-1.84903e-12
3.33434e-12
-3.1875e-12
5.64575e-12
-4.90514e-12
8.53367e-12
-6.63275e-12
1.19495e-11
-8.18521e-12
1.58298e-11
-9.49284e-12
2.00957e-11
-1.05446e-11
2.46626e-11
-1.13516e-11
2.94491e-11
-1.19295e-11
3.43768e-11
-1.22991e-11
3.9374e-11
-1.24819e-11
4.43752e-11
-1.24961e-11
4.93198e-11
-1.23622e-11
5.41548e-11
-1.20966e-11
5.88321e-11
-1.17147e-11
6.33105e-11
-1.12315e-11
6.75537e-11
-1.06612e-11
7.15295e-11
-1.00163e-11
7.52119e-11
-9.30803e-12
7.85792e-11
-8.54659e-12
8.16115e-11
-7.74262e-12
8.42953e-11
-6.90403e-12
8.66192e-11
-6.03951e-12
8.85746e-11
-5.15743e-12
9.01571e-11
-4.26313e-12
9.13642e-11
-3.36385e-12
9.21957e-11
-2.4658e-12
9.26542e-11
-1.57357e-12
9.27442e-11
-6.92682e-13
9.24716e-11
1.7208e-13
9.18447e-11
1.0176e-12
9.08735e-11
1.84003e-12
8.9569e-11
2.63557e-12
8.79437e-11
3.40169e-12
8.60114e-11
4.13555e-12
8.37865e-11
4.83414e-12
8.1285e-11
5.49563e-12
7.85229e-11
6.11829e-12
7.55171e-11
6.69997e-12
7.22856e-11
7.23967e-12
6.88463e-11
7.7365e-12
6.52175e-11
8.1896e-12
6.14183e-11
8.5983e-12
5.74681e-11
8.96247e-12
5.33866e-11
9.28119e-12
4.91921e-11
9.55375e-12
4.49045e-11
9.78086e-12
4.05432e-11
9.96278e-12
3.6127e-11
1.00994e-11
3.16755e-11
1.01912e-11
2.72073e-11
1.02388e-11
2.27408e-11
1.02426e-11
1.8294e-11
1.02036e-11
1.38851e-11
1.0123e-11
9.53228e-12
1.00014e-11
5.2516e-12
9.83959e-12
1.05885e-12
9.63944e-12
-3.02891e-12
9.4024e-12
-6.99666e-12
9.1292e-12
-1.08305e-11
8.82126e-12
-1.45156e-11
8.48057e-12
-1.80387e-11
8.10916e-12
-2.13875e-11
7.70854e-12
-2.45495e-11
7.27974e-12
-2.7514e-11
6.82446e-12
-3.02706e-11
6.34483e-12
-3.28096e-11
5.84245e-12
-3.51219e-11
5.31912e-12
-3.71993e-11
4.77732e-12
-3.90346e-11
4.21912e-12
-4.06219e-11
3.646e-12
-4.19557e-11
3.05987e-12
-4.30309e-11
2.46276e-12
-4.38435e-11
1.85635e-12
-4.43912e-11
1.24268e-12
-4.46714e-11
6.24279e-13
-4.46823e-11
3.31889e-15
-4.44243e-11
-6.18521e-13
-4.3898e-11
-1.23936e-12
-4.31041e-11
-1.85723e-12
-4.20451e-11
-2.47015e-12
-4.07244e-11
-3.0759e-12
-3.91457e-11
-3.6725e-12
-3.73138e-11
-4.25781e-12
-3.52339e-11
-4.82965e-12
-3.29122e-11
-5.38663e-12
-3.03567e-11
-5.92716e-12
-2.75755e-11
-6.449e-12
-2.45771e-11
-6.95002e-12
-2.13709e-11
-7.42829e-12
-1.7967e-11
-7.88239e-12
-1.43761e-11
-8.31095e-12
-1.06103e-11
-8.71202e-12
-6.68194e-12
-9.08384e-12
-2.60397e-12
-9.42508e-12
1.61018e-12
-9.73468e-12
5.94655e-12
-1.00117e-11
1.03902e-11
-1.02546e-11
1.49253e-11
-1.0462e-11
1.95362e-11
-1.06324e-11
2.42072e-11
-1.07643e-11
2.89221e-11
-1.08569e-11
3.36639e-11
-1.09099e-11
3.84146e-11
-1.09226e-11
4.31561e-11
-1.08942e-11
4.78708e-11
-1.08234e-11
5.25404e-11
-1.07094e-11
5.71472e-11
-1.05525e-11
6.16723e-11
-1.03524e-11
6.60968e-11
-1.01085e-11
7.0403e-11
-9.82093e-12
7.45719e-11
-9.49021e-12
7.85849e-11
-9.11657e-12
8.24241e-11
-8.70056e-12
8.60712e-11
-8.24222e-12
8.95088e-11
-7.74171e-12
9.27203e-11
-7.20049e-12
9.56878e-11
-6.61979e-12
9.83949e-11
-6.00038e-12
1.00827e-10
-5.34409e-12
1.02968e-10
-4.65295e-12
1.04805e-10
-3.92826e-12
1.06323e-10
-3.17164e-12
1.07511e-10
-2.38528e-12
1.08358e-10
-1.57183e-12
1.08854e-10
-7.34802e-13
1.0899e-10
1.22495e-13
1.08756e-10
9.97679e-13
1.08151e-10
1.88734e-12
1.07169e-10
2.78665e-12
1.05807e-10
3.69104e-12
1.04066e-10
4.59584e-12
1.01948e-10
5.49588e-12
9.94572e-11
6.38611e-12
9.66003e-11
7.26109e-12
9.33878e-11
8.11382e-12
8.98318e-11
8.93656e-12
8.59477e-11
9.72199e-12
8.17553e-11
1.04624e-11
7.72771e-11
1.11488e-11
7.25391e-11
1.17717e-11
6.75731e-11
1.23213e-11
6.24145e-11
1.27859e-11
5.71026e-11
1.31534e-11
5.16825e-11
1.34116e-11
4.62051e-11
1.35472e-11
4.07257e-11
1.35451e-11
3.5305e-11
1.339e-11
3.00106e-11
1.30665e-11
2.49143e-11
1.25586e-11
2.00917e-11
1.18516e-11
1.5623e-11
1.09335e-11
1.15896e-11
9.7963e-12
8.06945e-12
8.43992e-12
5.13336e-12
6.87986e-12
2.83975e-12
5.15754e-12
1.22396e-12
3.35321e-12
2.90035e-13
1.61454e-12
2.48686e-13
5.17943e-13
-1.52296e-12
1.99935e-12
-3.32688e-12
4.2451e-12
-5.43479e-12
7.19909e-12
-7.85744e-12
1.08071e-11
-1.02386e-11
1.50011e-11
-1.23783e-11
1.97016e-11
-1.41944e-11
2.48209e-11
-1.56653e-11
3.02689e-11
-1.67989e-11
3.59534e-11
-1.76132e-11
4.17862e-11
-1.8133e-11
4.76882e-11
-1.83822e-11
5.35796e-11
-1.83882e-11
5.93937e-11
-1.81756e-11
6.50672e-11
-1.77691e-11
7.05431e-11
-1.71905e-11
7.57723e-11
-1.64609e-11
8.07113e-11
-1.56002e-11
8.53213e-11
-1.46269e-11
8.95711e-11
-1.35577e-11
9.34328e-11
-1.2409e-11
9.68846e-11
-1.11946e-11
9.9908e-11
-9.9278e-12
1.02489e-10
-8.62182e-12
1.04619e-10
-7.28708e-12
1.0629e-10
-5.9345e-12
1.075e-10
-4.57415e-12
1.08248e-10
-3.2144e-12
1.08538e-10
-1.86367e-12
1.08375e-10
-5.29631e-13
1.07766e-10
7.81189e-13
1.06722e-10
2.06246e-12
1.05254e-10
3.30834e-12
1.03376e-10
4.51379e-12
1.01104e-10
5.67419e-12
9.8454e-11
6.78518e-12
9.54448e-11
7.84313e-12
9.20954e-11
8.84456e-12
8.84254e-11
9.78693e-12
8.4457e-11
1.06679e-11
8.02121e-11
1.1485e-11
7.57126e-11
1.22363e-11
7.09815e-11
1.29205e-11
6.60427e-11
1.3537e-11
6.092e-11
1.4085e-11
5.56374e-11
1.45634e-11
5.02191e-11
1.49721e-11
4.46894e-11
1.53113e-11
3.90722e-11
1.55804e-11
3.33915e-11
1.57801e-11
2.76714e-11
1.59114e-11
2.19352e-11
1.59752e-11
1.62062e-11
1.59721e-11
1.05071e-11
1.59032e-11
4.8596e-12
1.577e-11
-7.13901e-13
1.55743e-11
-6.19191e-12
1.53175e-11
-1.15543e-11
1.50016e-11
-1.67808e-11
1.46289e-11
-2.18527e-11
1.42011e-11
-2.67517e-11
1.37205e-11
-3.14595e-11
1.31897e-11
-3.59597e-11
1.26105e-11
-4.0237e-11
1.19856e-11
-4.42756e-11
1.1318e-11
-4.80614e-11
1.06104e-11
-5.15821e-11
9.86544e-12
-5.48254e-11
9.08552e-12
-5.77796e-11
8.27361e-12
-6.04348e-11
7.43284e-12
-6.27823e-11
6.56625e-12
-6.48135e-11
5.67681e-12
-6.65214e-11
4.76769e-12
-6.79004e-11
3.84184e-12
-6.89458e-11
2.9019e-12
-6.96538e-11
1.95105e-12
-7.00214e-11
9.92746e-13
-7.00469e-11
2.98949e-14
-6.97303e-11
-9.34719e-13
-6.90723e-11
-1.89766e-12
-6.80742e-11
-2.85541e-12
-6.67388e-11
-3.80513e-12
-6.50701e-11
-4.74399e-12
-6.30729e-11
-5.66904e-12
-6.07531e-11
-6.57716e-12
-5.81182e-11
-7.46488e-12
-5.51758e-11
-8.32928e-12
-5.19346e-11
-9.16793e-12
-4.84049e-11
-9.97801e-12
-4.45977e-11
-1.07567e-11
-4.05254e-11
-1.15009e-11
-3.62007e-11
-1.22078e-11
-3.16364e-11
-1.2875e-11
-2.68473e-11
-1.35003e-11
-2.18494e-11
-1.40815e-11
-1.66592e-11
-1.46162e-11
-1.12939e-11
-1.51018e-11
-5.77024e-12
-1.55361e-11
-1.06956e-13
-1.59177e-11
5.67644e-12
-1.62449e-11
1.15606e-11
-1.65159e-11
1.75247e-11
-1.67287e-11
2.35481e-11
-1.6881e-11
2.96096e-11
-1.69719e-11
3.56873e-11
-1.70003e-11
4.17593e-11
-1.69652e-11
4.78029e-11
-1.68659e-11
5.37945e-11
-1.6701e-11
5.97122e-11
-1.64699e-11
6.55332e-11
-1.61725e-11
7.12332e-11
-1.58084e-11
7.67897e-11
-1.53774e-11
8.21796e-11
-1.48799e-11
8.73794e-11
-1.43165e-11
9.23673e-11
-1.36877e-11
9.71204e-11
-1.29946e-11
1.01616e-10
-1.22376e-11
1.05834e-10
-1.1418e-11
1.09753e-10
-1.05379e-11
1.13351e-10
-9.59921e-12
1.16611e-10
-8.6036e-12
1.19513e-10
-7.5542e-12
1.22039e-10
-6.45421e-12
1.24174e-10
-5.30621e-12
1.25901e-10
-4.11331e-12
1.27208e-10
-2.87948e-12
1.28082e-10
-1.60916e-12
1.28513e-10
-3.07579e-13
1.28491e-10
1.02004e-12
1.28008e-10
2.36879e-12
1.27062e-10
3.73262e-12
1.25648e-10
5.10417e-12
1.23768e-10
6.47591e-12
1.21425e-10
7.84027e-12
1.18623e-10
9.18889e-12
1.1537e-10
1.05129e-11
1.1168e-10
1.1803e-11
1.07568e-10
1.30484e-11
1.03053e-10
1.42371e-11
9.81585e-11
1.53567e-11
9.29129e-11
1.63945e-11
8.73483e-11
1.73362e-11
8.15023e-11
1.81668e-11
7.54175e-11
1.88704e-11
6.9142e-11
1.94295e-11
6.27292e-11
1.98251e-11
5.62389e-11
2.00379e-11
4.97366e-11
2.00477e-11
4.32936e-11
1.98331e-11
3.69877e-11
1.93725e-11
3.09013e-11
1.86452e-11
2.51209e-11
1.76323e-11
1.97364e-11
1.6318e-11
1.48389e-11
1.46937e-11
1.05165e-11
1.27624e-11
6.8517e-12
1.05452e-11
3.91675e-12
8.09293e-12
1.77036e-12
5.50006e-12
4.54903e-13
2.93027e-12
7.03527e-13
6.05611e-13
-2.13037e-12
2.36134e-12
-5.0791e-12
5.05479e-12
-8.13097e-12
8.56455e-12
-1.137e-11
1.28004e-11
-1.44731e-11
1.76686e-11
-1.72456e-11
2.30751e-11
-1.95998e-11
2.89195e-11
-2.15109e-11
3.51043e-11
-2.29835e-11
4.15294e-11
-2.40392e-11
4.81012e-11
-2.47042e-11
5.4729e-11
-2.50101e-11
6.13294e-11
-2.49888e-11
6.78251e-11
-2.46718e-11
7.41466e-11
-2.40903e-11
8.02308e-11
-2.32741e-11
8.60211e-11
-2.22511e-11
9.14681e-11
-2.10475e-11
9.65294e-11
-1.96876e-11
1.01166e-10
-1.81955e-11
1.05349e-10
-1.65917e-11
1.09052e-10
-1.48965e-11
1.12252e-10
-1.3129e-11
1.14936e-10
-1.13053e-11
1.17091e-10
-9.44149e-12
1.18709e-10
-7.55303e-12
1.19787e-10
-5.65252e-12
1.20326e-10
-3.75272e-12
1.20328e-10
-1.86557e-12
1.19799e-10
-9.86794e-16
1.18749e-10
1.83126e-12
1.17189e-10
3.62198e-12
1.15133e-10
5.36363e-12
1.12598e-10
7.0488e-12
1.09601e-10
8.67065e-12
1.06163e-10
1.02235e-11
1.02304e-10
1.17019e-11
9.80479e-11
1.3101e-11
9.34176e-11
1.44167e-11
8.84389e-11
1.56462e-11
8.31379e-11
1.6786e-11
7.75402e-11
1.78334e-11
7.16741e-11
1.87867e-11
6.55676e-11
1.96442e-11
5.92481e-11
2.04042e-11
5.27444e-11
2.10664e-11
4.60857e-11
2.16307e-11
3.93002e-11
2.20965e-11
3.24168e-11
2.24637e-11
2.54642e-11
2.27331e-11
1.84702e-11
2.29056e-11
1.14629e-11
2.29824e-11
4.47026e-12
2.2965e-11
-2.48028e-12
2.28546e-11
-9.36331e-12
2.26533e-11
-1.61529e-11
2.23636e-11
-2.28228e-11
2.19878e-11
-2.93487e-11
2.15281e-11
-3.57073e-11
2.09875e-11
-4.18756e-11
2.0369e-11
-4.78318e-11
1.96763e-11
-5.35545e-11
1.89126e-11
-5.90238e-11
1.80804e-11
-6.42213e-11
1.71832e-11
-6.91286e-11
1.62255e-11
-7.37289e-11
1.5211e-11
-7.80069e-11
1.41432e-11
-8.19479e-11
1.30262e-11
-8.55382e-11
1.18644e-11
-8.87664e-11
1.06614e-11
-9.16218e-11
9.42147e-12
-9.4094e-11
8.1492e-12
-9.61744e-11
6.84871e-12
-9.78568e-11
5.52414e-12
-9.91351e-11
4.17996e-12
-1.00005e-10
2.82081e-12
-1.00463e-10
1.45108e-12
-1.00507e-10
7.47543e-14
-1.00137e-10
-1.30409e-12
-9.93531e-11
-2.68072e-12
-9.81582e-11
-4.05021e-12
-9.65551e-11
-5.4083e-12
-9.45483e-11
-6.75081e-12
-9.21435e-11
-8.07342e-12
-8.93476e-11
-9.37209e-12
-8.61698e-11
-1.06425e-11
-8.26195e-11
-1.188e-11
-7.8707e-11
-1.30807e-11
-7.44441e-11
-1.42405e-11
-6.98439e-11
-1.5356e-11
-6.49211e-11
-1.64234e-11
-5.96914e-11
-1.74382e-11
-5.41701e-11
-1.83966e-11
-4.83749e-11
-1.92954e-11
-4.23244e-11
-2.01317e-11
-3.60379e-11
-2.09025e-11
-2.95364e-11
-2.16042e-11
-2.28406e-11
-2.22332e-11
-1.59725e-11
-2.27871e-11
-8.95504e-12
-2.32634e-11
-1.81092e-12
-2.36596e-11
5.43525e-12
-2.39736e-11
1.27578e-11
-2.4203e-11
2.01316e-11
-2.43455e-11
2.75307e-11
-2.43993e-11
3.49289e-11
-2.4363e-11
4.22997e-11
-2.42357e-11
4.9615e-11
-2.40161e-11
5.68478e-11
-2.3703e-11
6.39715e-11
-2.32956e-11
7.09579e-11
-2.27942e-11
7.77792e-11
-2.21987e-11
8.44083e-11
-2.1509e-11
9.08176e-11
-2.0726e-11
9.69807e-11
-1.98505e-11
1.02871e-10
-1.88836e-11
1.08461e-10
-1.78272e-11
1.13727e-10
-1.66829e-11
1.18643e-10
-1.54532e-11
1.23185e-10
-1.41411e-11
1.2733e-10
-1.27493e-11
1.31057e-10
-1.12811e-11
1.34343e-10
-9.74091e-12
1.37171e-10
-8.13364e-12
1.39522e-10
-6.46382e-12
1.41379e-10
-4.73687e-12
1.42729e-10
-2.95909e-12
1.43559e-10
-1.13714e-12
1.43858e-10
7.21525e-13
1.43617e-10
2.60874e-12
1.42833e-10
4.51625e-12
1.415e-10
6.43495e-12
1.39622e-10
8.35426e-12
1.37199e-10
1.02629e-11
1.34239e-10
1.21493e-11
1.30753e-10
1.40005e-11
1.26753e-10
1.58029e-11
1.22258e-10
1.75423e-11
1.17291e-10
1.92031e-11
1.11879e-10
2.07679e-11
1.06055e-10
2.22183e-11
9.98545e-11
2.35356e-11
9.33227e-11
2.4699e-11
8.65075e-11
2.56862e-11
7.9463e-11
2.64742e-11
7.22503e-11
2.70383e-11
6.49368e-11
2.73522e-11
5.75953e-11
2.7389e-11
5.03054e-11
2.71221e-11
4.31533e-11
2.65243e-11
3.62295e-11
2.55692e-11
2.96284e-11
2.4233e-11
2.34484e-11
2.24978e-11
1.77892e-11
2.03535e-11
1.27484e-11
1.78035e-11
8.42096e-12
1.48728e-11
4.8972e-12
1.16168e-11
2.26234e-12
8.13499e-12
5.99365e-13
4.59309e-12
1.30289e-12
6.94262e-13
-2.82616e-12
2.68911e-12
-7.07222e-12
5.76329e-12
-1.12034e-11
9.74696e-12
-1.53563e-11
1.45161e-11
-1.92431e-11
1.99558e-11
-2.26837e-11
2.59545e-11
-2.55972e-11
3.24015e-11
-2.79576e-11
3.91889e-11
-2.97718e-11
4.62124e-11
-3.1062e-11
5.3369e-11
-3.18609e-11
6.05636e-11
-3.22049e-11
6.77067e-11
-3.21317e-11
7.47143e-11
-3.16799e-11
8.1512e-11
-3.0888e-11
8.80306e-11
-2.97927e-11
9.42083e-11
-2.84293e-11
9.99922e-11
-2.6831e-11
1.05334e-10
-2.50298e-11
1.10193e-10
-2.30548e-11
1.14535e-10
-2.09335e-11
1.1833e-10
-1.86925e-11
1.21556e-10
-1.63555e-11
1.24195e-10
-1.39446e-11
1.26235e-10
-1.14812e-11
1.27666e-10
-8.98431e-12
1.28485e-10
-6.47149e-12
1.28692e-10
-3.95966e-12
1.28291e-10
-1.46396e-12
1.27288e-10
1.00186e-12
1.25695e-10
3.4247e-12
1.23524e-10
5.79287e-12
1.20792e-10
8.09586e-12
1.17516e-10
1.0324e-11
1.13718e-10
1.24681e-11
1.09421e-10
1.45206e-11
1.04648e-10
1.64746e-11
9.94251e-11
1.83232e-11
9.37808e-11
2.00612e-11
8.77432e-11
2.1684e-11
8.13417e-11
2.3187e-11
7.4607e-11
2.45674e-11
6.75709e-11
2.58228e-11
6.02654e-11
2.695e-11
5.27223e-11
2.79473e-11
4.49748e-11
2.88142e-11
3.70559e-11
2.95498e-11
2.89981e-11
3.01537e-11
2.08354e-11
3.06266e-11
1.25999e-11
3.09688e-11
4.32393e-12
3.11815e-11
-3.96007e-12
3.12662e-11
-1.22202e-11
3.12249e-11
-2.0425e-11
3.10596e-11
-2.85443e-11
3.07726e-11
-3.65488e-11
3.03675e-11
-4.44081e-11
2.98474e-11
-5.20945e-11
2.92151e-11
-5.95811e-11
2.84744e-11
-6.68409e-11
2.76295e-11
-7.38489e-11
2.66847e-11
-8.05811e-11
2.56446e-11
-8.70139e-11
2.45132e-11
-9.31254e-11
2.32953e-11
-9.88956e-11
2.19961e-11
-1.04305e-10
2.06204e-11
-1.09335e-10
1.91732e-11
-1.13969e-10
1.76603e-11
-1.18192e-10
1.6087e-11
-1.21989e-10
1.44588e-11
-1.25349e-10
1.27813e-11
-1.2826e-10
1.10603e-11
-1.30712e-10
9.30129e-12
-1.32698e-10
7.50986e-12
-1.34209e-10
5.69221e-12
-1.35242e-10
3.85435e-12
-1.35793e-10
2.00202e-12
-1.3586e-10
1.41008e-13
-1.35441e-10
-1.72282e-12
-1.34537e-10
-3.58357e-12
-1.33151e-10
-5.43523e-12
-1.31288e-10
-7.27187e-12
-1.28951e-10
-9.08763e-12
-1.26148e-10
-1.08765e-11
-1.22887e-10
-1.26331e-11
-1.19177e-10
-1.43519e-11
-1.1503e-10
-1.6027e-11
-1.10457e-10
-1.76529e-11
-1.05474e-10
-1.92241e-11
-1.00094e-10
-2.07357e-11
-9.43345e-11
-2.21826e-11
-8.82129e-11
-2.35597e-11
-8.17481e-11
-2.48615e-11
-7.49604e-11
-2.60837e-11
-6.7871e-11
-2.72219e-11
-6.05018e-11
-2.82716e-11
-5.28767e-11
-2.9229e-11
-4.50205e-11
-3.00899e-11
-3.69584e-11
-3.08501e-11
-2.87167e-11
-3.15063e-11
-2.03221e-11
-3.20547e-11
-1.18025e-11
-3.24926e-11
-3.18728e-12
-3.28174e-11
5.49439e-12
-3.30263e-11
1.42124e-11
-3.31167e-11
2.29364e-11
-3.30867e-11
3.16359e-11
-3.29345e-11
4.02793e-11
-3.26589e-11
4.88349e-11
-3.22586e-11
5.72714e-11
-3.17321e-11
6.55572e-11
-3.10795e-11
7.36604e-11
-3.03013e-11
8.15493e-11
-2.93977e-11
8.91925e-11
-2.83691e-11
9.65592e-11
-2.7217e-11
1.03619e-10
-2.59428e-11
1.10342e-10
-2.45489e-11
1.16697e-10
-2.3038e-11
1.22658e-10
-2.14132e-11
1.28196e-10
-1.96783e-11
1.33285e-10
-1.78377e-11
1.37899e-10
-1.58958e-11
1.42014e-10
-1.38574e-11
1.4561e-10
-1.17292e-11
1.48666e-10
-9.51838e-12
1.51161e-10
-7.23203e-12
1.53079e-10
-4.87821e-12
1.54408e-10
-2.46597e-12
1.55134e-10
-4.92782e-15
1.55249e-10
2.4942e-12
1.54746e-10
5.01949e-12
1.53621e-10
7.55872e-12
1.51875e-10
1.00989e-11
1.49513e-10
1.26253e-11
1.4654e-10
1.51218e-11
1.42968e-10
1.75717e-11
1.38814e-10
1.99571e-11
1.34098e-10
2.22586e-11
1.28844e-10
2.44558e-11
1.23084e-10
2.65271e-11
1.16853e-10
2.84487e-11
1.10193e-10
3.01953e-11
1.03151e-10
3.17404e-11
9.57821e-11
3.30561e-11
8.81446e-11
3.41121e-11
8.03053e-11
3.48772e-11
7.23377e-11
3.53193e-11
6.43215e-11
3.54053e-11
5.63421e-11
3.5101e-11
4.84918e-11
3.43738e-11
4.0868e-11
3.31924e-11
3.35723e-11
3.15287e-11
2.67099e-11
2.93603e-11
2.03885e-11
2.6675e-11
1.47165e-11
2.34757e-11
9.80205e-12
1.97869e-11
5.755e-12
1.56637e-11
2.68781e-12
1.12022e-11
7.21459e-13
6.55919e-12
2.02454e-12
7.74714e-13
-3.60171e-12
2.97228e-12
-9.2686e-12
6.36108e-12
-1.45906e-11
1.074e-11
-1.97348e-11
1.59517e-11
-2.44568e-11
2.1862e-11
-2.85948e-11
2.83447e-11
-3.20792e-11
3.52771e-11
-3.48906e-11
4.25436e-11
-3.70382e-11
5.00318e-11
-3.85501e-11
5.76339e-11
-3.94632e-11
6.52496e-11
-3.982e-11
7.2784e-11
-3.96656e-11
8.01493e-11
-3.90453e-11
8.72657e-11
-3.80045e-11
9.40602e-11
-3.65874e-11
1.00467e-10
-3.48369e-11
1.0643e-10
-3.27936e-11
1.11896e-10
-3.04966e-11
1.16823e-10
-2.79815e-11
1.21173e-10
-2.52839e-11
1.24915e-10
-2.24349e-11
1.28025e-10
-1.94648e-11
1.30482e-10
-1.64022e-11
1.32273e-10
-1.32729e-11
1.3339e-10
-1.01012e-11
1.33828e-10
-6.9098e-12
1.33588e-10
-3.71944e-12
1.32673e-10
-5.4942e-13
1.31093e-10
2.58237e-12
1.28858e-10
5.65958e-12
1.25984e-10
8.66715e-12
1.22488e-10
1.15918e-11
1.18391e-10
1.44206e-11
1.13717e-10
1.71425e-11
1.0849e-10
1.97474e-11
1.02737e-10
2.22261e-11
9.64892e-11
2.4571e-11
8.97761e-11
2.67747e-11
8.26292e-11
2.88306e-11
7.50825e-11
3.07337e-11
6.71704e-11
3.24799e-11
5.89274e-11
3.40653e-11
5.039e-11
3.54869e-11
4.15945e-11
3.67427e-11
3.25776e-11
3.78312e-11
2.33761e-11
3.87511e-11
1.40275e-11
3.95023e-11
4.56887e-12
4.00854e-11
-4.96338e-12
4.0501e-11
-1.45322e-11
4.07505e-11
-2.41013e-11
4.08357e-11
-3.36357e-11
4.07591e-11
-4.30998e-11
4.05235e-11
-5.24589e-11
4.01319e-11
-6.16798e-11
3.95884e-11
-7.07293e-11
3.88968e-11
-7.95759e-11
3.80615e-11
-8.81889e-11
3.70873e-11
-9.65381e-11
3.59794e-11
-1.04595e-10
3.47426e-11
-1.12333e-10
3.33827e-11
-1.19726e-10
3.19058e-11
-1.26748e-10
3.0318e-11
-1.33378e-10
2.86255e-11
-1.39592e-10
2.68346e-11
-1.4537e-10
2.4952e-11
-1.50694e-10
2.29846e-11
-1.55546e-10
2.09392e-11
-1.59911e-10
1.88233e-11
-1.63773e-10
1.66439e-11
-1.67122e-10
1.44085e-11
-1.69945e-10
1.21242e-11
-1.72233e-10
9.79835e-12
-1.73979e-10
7.43893e-12
-1.75177e-10
5.0532e-12
-1.75823e-10
2.64845e-12
-1.75915e-10
2.32477e-13
-1.75451e-10