/*--------------------------------*- C++ -*----------------------------------*\
  =========                 |
  \\      /  F ield         | OpenFOAM: The Open Source CFD Toolbox
   \\    /   O peration     | Website:  https://openfoam.org
    \\  /    A nd           | Version:  7
     \\/     M anipulation  |
\*---------------------------------------------------------------------------*/
FoamFile
{
    version     2.0;
    format      ascii;
    class       volVectorField;
    location    "0.3625";
    object      U;
}
// * * * * * * * * * * * * * * * * * * * * * * * * * * * * * * * * * * * * * //

dimensions      [0 1 -1 0 0 0 0];

internalField   nonuniform List<vector> 
51200
(
(4.77421e-08 6.77861e-08 0)
(-3.92903e-08 9.35205e-08 0)
(-5.62587e-08 3.70028e-08 0)
(-7.99158e-08 8.99821e-09 0)
(-2.31253e-08 -1.34581e-08 0)
(6.48918e-08 -2.78125e-08 0)
(1.77543e-07 -3.71815e-08 0)
(3.08021e-07 -4.3235e-08 0)
(4.51024e-07 -4.67077e-08 0)
(6.02246e-07 -4.89191e-08 0)
(7.59122e-07 -5.01649e-08 0)
(9.18752e-07 -5.09309e-08 0)
(1.07874e-06 -5.11262e-08 0)
(1.23769e-06 -5.04127e-08 0)
(1.39351e-06 -4.91679e-08 0)
(1.54497e-06 -4.75633e-08 0)
(1.69119e-06 -4.56243e-08 0)
(1.83066e-06 -4.3528e-08 0)
(1.96279e-06 -4.12187e-08 0)
(2.08704e-06 -3.8439e-08 0)
(2.20242e-06 -3.54273e-08 0)
(2.3085e-06 -3.25704e-08 0)
(2.40526e-06 -2.95471e-08 0)
(2.49212e-06 -2.65085e-08 0)
(2.56873e-06 -2.36272e-08 0)
(2.63537e-06 -2.06131e-08 0)
(2.69179e-06 -1.75352e-08 0)
(2.73781e-06 -1.4579e-08 0)
(2.77372e-06 -1.1694e-08 0)
(2.79971e-06 -8.85069e-09 0)
(2.81581e-06 -6.06314e-09 0)
(2.82228e-06 -3.35366e-09 0)
(2.81941e-06 -6.74972e-10 0)
(2.80744e-06 2.06707e-09 0)
(2.78658e-06 4.7706e-09 0)
(2.75718e-06 7.25314e-09 0)
(2.71973e-06 9.58285e-09 0)
(2.67467e-06 1.18682e-08 0)
(2.62233e-06 1.39552e-08 0)
(2.56325e-06 1.57685e-08 0)
(2.49795e-06 1.74827e-08 0)
(2.42681e-06 1.91185e-08 0)
(2.35027e-06 2.05718e-08 0)
(2.2688e-06 2.19045e-08 0)
(2.18292e-06 2.31939e-08 0)
(2.09314e-06 2.43896e-08 0)
(1.99995e-06 2.54263e-08 0)
(1.90386e-06 2.62408e-08 0)
(1.80533e-06 2.68533e-08 0)
(1.70487e-06 2.73871e-08 0)
(1.60295e-06 2.77975e-08 0)
(1.50002e-06 2.7991e-08 0)
(1.39661e-06 2.7996e-08 0)
(1.29325e-06 2.79206e-08 0)
(1.19035e-06 2.78251e-08 0)
(1.08828e-06 2.76773e-08 0)
(9.87444e-07 2.74199e-08 0)
(8.88375e-07 2.69783e-08 0)
(7.91534e-07 2.63032e-08 0)
(6.97192e-07 2.54447e-08 0)
(6.05701e-07 2.4492e-08 0)
(5.17487e-07 2.35186e-08 0)
(4.32865e-07 2.25543e-08 0)
(3.52121e-07 2.15548e-08 0)
(2.75566e-07 2.04433e-08 0)
(2.03508e-07 1.91425e-08 0)
(1.36301e-07 1.76457e-08 0)
(7.42424e-08 1.6108e-08 0)
(1.74904e-08 1.46907e-08 0)
(-3.38232e-08 1.33387e-08 0)
(-7.9543e-08 1.18897e-08 0)
(-1.1946e-07 1.0262e-08 0)
(-1.53333e-07 8.46281e-09 0)
(-1.81047e-07 6.57888e-09 0)
(-2.02578e-07 4.74166e-09 0)
(-2.17842e-07 3.01752e-09 0)
(-2.26737e-07 1.35865e-09 0)
(-2.29239e-07 -3.18062e-10 0)
(-2.25337e-07 -2.0436e-09 0)
(-2.14982e-07 -3.8239e-09 0)
(-1.98182e-07 -5.65315e-09 0)
(-1.75011e-07 -7.48497e-09 0)
(-1.45497e-07 -9.27144e-09 0)
(-1.09725e-07 -1.09797e-08 0)
(-6.78658e-08 -1.26135e-08 0)
(-2.00915e-08 -1.42046e-08 0)
(3.34502e-08 -1.57425e-08 0)
(9.26433e-08 -1.7221e-08 0)
(1.57343e-07 -1.86894e-08 0)
(2.27306e-07 -2.01668e-08 0)
(3.02236e-07 -2.15893e-08 0)
(3.81867e-07 -2.28764e-08 0)
(4.65982e-07 -2.40098e-08 0)
(5.54306e-07 -2.50345e-08 0)
(6.46526e-07 -2.60101e-08 0)
(7.42319e-07 -2.69377e-08 0)
(8.41303e-07 -2.77568e-08 0)
(9.43164e-07 -2.84633e-08 0)
(1.04764e-06 -2.90971e-08 0)
(1.15434e-06 -2.964e-08 0)
(1.26284e-06 -3.00724e-08 0)
(1.37269e-06 -3.03839e-08 0)
(1.48341e-06 -3.05318e-08 0)
(1.59467e-06 -3.05155e-08 0)
(1.70612e-06 -3.03678e-08 0)
(1.81734e-06 -3.01295e-08 0)
(1.92787e-06 -2.98514e-08 0)
(2.03719e-06 -2.94923e-08 0)
(2.14477e-06 -2.89577e-08 0)
(2.25023e-06 -2.82442e-08 0)
(2.35312e-06 -2.73941e-08 0)
(2.45298e-06 -2.64051e-08 0)
(2.54931e-06 -2.52545e-08 0)
(2.6416e-06 -2.39404e-08 0)
(2.72942e-06 -2.2502e-08 0)
(2.81232e-06 -2.09818e-08 0)
(2.8898e-06 -1.93517e-08 0)
(2.96142e-06 -1.75703e-08 0)
(3.02679e-06 -1.56643e-08 0)
(3.08546e-06 -1.36844e-08 0)
(3.13705e-06 -1.16622e-08 0)
(3.18119e-06 -9.55295e-09 0)
(3.21746e-06 -7.23235e-09 0)
(3.24549e-06 -4.65528e-09 0)
(3.26492e-06 -1.91726e-09 0)
(3.27533e-06 8.52162e-10 0)
(3.27651e-06 3.55291e-09 0)
(3.26833e-06 6.18278e-09 0)
(3.25051e-06 8.89211e-09 0)
(3.22272e-06 1.1813e-08 0)
(3.18485e-06 1.48693e-08 0)
(3.13688e-06 1.79239e-08 0)
(3.0788e-06 2.09593e-08 0)
(3.01061e-06 2.39823e-08 0)
(2.93227e-06 2.69443e-08 0)
(2.84389e-06 2.98021e-08 0)
(2.74577e-06 3.2548e-08 0)
(2.6382e-06 3.52281e-08 0)
(2.52146e-06 3.7902e-08 0)
(2.39603e-06 4.05283e-08 0)
(2.26241e-06 4.29919e-08 0)
(2.12111e-06 4.52169e-08 0)
(1.97292e-06 4.71424e-08 0)
(1.81882e-06 4.87164e-08 0)
(1.65981e-06 4.99873e-08 0)
(1.49704e-06 5.10103e-08 0)
(1.33187e-06 5.1668e-08 0)
(1.16584e-06 5.17692e-08 0)
(1.00063e-06 5.12142e-08 0)
(8.38344e-07 4.99642e-08 0)
(6.81264e-07 4.79629e-08 0)
(5.31884e-07 4.51046e-08 0)
(3.93069e-07 4.1231e-08 0)
(2.68076e-07 3.61282e-08 0)
(1.60446e-07 2.95755e-08 0)
(7.39776e-08 2.14546e-08 0)
(1.25357e-08 1.1814e-08 0)
(-2.06782e-08 1.10985e-09 0)
(-2.56326e-08 -8.81689e-09 0)
(-1.07909e-08 -1.08434e-08 0)
(7.94118e-08 4.40212e-09 0)
(1.03475e-07 9.71092e-08 0)
(1.15463e-07 1.30293e-08 0)
(1.97985e-07 -6.27251e-08 0)
(3.59839e-07 -1.33504e-07 0)
(5.88202e-07 -1.89114e-07 0)
(8.71832e-07 -2.30889e-07 0)
(1.1999e-06 -2.61172e-07 0)
(1.56094e-06 -2.82995e-07 0)
(1.94659e-06 -2.97024e-07 0)
(2.34907e-06 -3.05655e-07 0)
(2.76094e-06 -3.09793e-07 0)
(3.17668e-06 -3.09634e-07 0)
(3.59036e-06 -3.06071e-07 0)
(3.99744e-06 -2.994e-07 0)
(4.39427e-06 -2.89819e-07 0)
(4.77689e-06 -2.78337e-07 0)
(5.14259e-06 -2.65033e-07 0)
(5.48894e-06 -2.49945e-07 0)
(5.81337e-06 -2.33574e-07 0)
(6.11417e-06 -2.16023e-07 0)
(6.39016e-06 -1.97541e-07 0)
(6.63986e-06 -1.78366e-07 0)
(6.86229e-06 -1.58888e-07 0)
(7.05712e-06 -1.38995e-07 0)
(7.22365e-06 -1.18825e-07 0)
(7.36162e-06 -9.86519e-08 0)
(7.47117e-06 -7.85549e-08 0)
(7.5523e-06 -5.86121e-08 0)
(7.60529e-06 -3.9003e-08 0)
(7.63067e-06 -1.98435e-08 0)
(7.62893e-06 -1.14104e-09 0)
(7.6008e-06 1.71204e-08 0)
(7.54709e-06 3.4915e-08 0)
(7.46863e-06 5.20476e-08 0)
(7.36641e-06 6.84016e-08 0)
(7.24156e-06 8.39956e-08 0)
(7.0952e-06 9.87519e-08 0)
(6.92847e-06 1.12579e-07 0)
(6.74271e-06 1.25491e-07 0)
(6.53924e-06 1.37535e-07 0)
(6.31937e-06 1.48637e-07 0)
(6.08451e-06 1.5869e-07 0)
(5.83593e-06 1.67762e-07 0)
(5.57498e-06 1.75962e-07 0)
(5.30313e-06 1.83286e-07 0)
(5.02179e-06 1.89624e-07 0)
(4.73229e-06 1.94906e-07 0)
(4.43613e-06 1.99174e-07 0)
(4.13479e-06 2.0253e-07 0)
(3.82964e-06 2.04911e-07 0)
(3.522e-06 2.0629e-07 0)
(3.21324e-06 2.06728e-07 0)
(2.90482e-06 2.06284e-07 0)
(2.59806e-06 2.04953e-07 0)
(2.29412e-06 2.02719e-07 0)
(1.99416e-06 1.99701e-07 0)
(1.69951e-06 1.95941e-07 0)
(1.41149e-06 1.91307e-07 0)
(1.13115e-06 1.85801e-07 0)
(8.59433e-07 1.79545e-07 0)
(5.97412e-07 1.72623e-07 0)
(3.46106e-07 1.65114e-07 0)
(1.06522e-07 1.57042e-07 0)
(-1.20462e-07 1.48373e-07 0)
(-3.34153e-07 1.39092e-07 0)
(-5.3372e-07 1.29224e-07 0)
(-7.18248e-07 1.18854e-07 0)
(-8.87113e-07 1.08113e-07 0)
(-1.03987e-06 9.70341e-08 0)
(-1.17598e-06 8.56165e-08 0)
(-1.29484e-06 7.39038e-08 0)
(-1.39601e-06 6.1876e-08 0)
(-1.47916e-06 4.95103e-08 0)
(-1.54402e-06 3.69244e-08 0)
(-1.59038e-06 2.42558e-08 0)
(-1.61803e-06 1.15371e-08 0)
(-1.62681e-06 -1.22774e-09 0)
(-1.61658e-06 -1.40005e-08 0)
(-1.58736e-06 -2.6777e-08 0)
(-1.53931e-06 -3.9551e-08 0)
(-1.4726e-06 -5.2221e-08 0)
(-1.3873e-06 -6.47e-08 0)
(-1.28359e-06 -7.69653e-08 0)
(-1.16187e-06 -8.90105e-08 0)
(-1.02259e-06 -1.00813e-07 0)
(-8.66192e-07 -1.12268e-07 0)
(-6.93182e-07 -1.23282e-07 0)
(-5.04048e-07 -1.33896e-07 0)
(-2.99343e-07 -1.44168e-07 0)
(-7.97703e-08 -1.54034e-07 0)
(1.53836e-07 -1.63336e-07 0)
(4.00669e-07 -1.71972e-07 0)
(6.59983e-07 -1.79941e-07 0)
(9.31021e-07 -1.87306e-07 0)
(1.21292e-06 -1.94116e-07 0)
(1.50456e-06 -2.00298e-07 0)
(1.80485e-06 -2.05749e-07 0)
(2.11281e-06 -2.10458e-07 0)
(2.42747e-06 -2.14416e-07 0)
(2.74772e-06 -2.17622e-07 0)
(3.07237e-06 -2.20093e-07 0)
(3.40011e-06 -2.21739e-07 0)
(3.72973e-06 -2.22463e-07 0)
(4.06004e-06 -2.22255e-07 0)
(4.38983e-06 -2.2115e-07 0)
(4.71791e-06 -2.19238e-07 0)
(5.04294e-06 -2.16513e-07 0)
(5.36345e-06 -2.12834e-07 0)
(5.67804e-06 -2.08144e-07 0)
(5.98545e-06 -2.02504e-07 0)
(6.28439e-06 -1.95948e-07 0)
(6.57351e-06 -1.88466e-07 0)
(6.8514e-06 -1.8005e-07 0)
(7.11664e-06 -1.70722e-07 0)
(7.36798e-06 -1.60548e-07 0)
(7.60414e-06 -1.49523e-07 0)
(7.82379e-06 -1.37564e-07 0)
(8.02572e-06 -1.24687e-07 0)
(8.20872e-06 -1.10989e-07 0)
(8.37162e-06 -9.65529e-08 0)
(8.51332e-06 -8.14225e-08 0)
(8.63268e-06 -6.55471e-08 0)
(8.72865e-06 -4.8876e-08 0)
(8.80036e-06 -3.14745e-08 0)
(8.84684e-06 -1.34409e-08 0)
(8.86722e-06 5.118e-09 0)
(8.86083e-06 2.40378e-08 0)
(8.82709e-06 4.32414e-08 0)
(8.76546e-06 6.28247e-08 0)
(8.67556e-06 8.2793e-08 0)
(8.55719e-06 1.02942e-07 0)
(8.4102e-06 1.23083e-07 0)
(8.23463e-06 1.431e-07 0)
(8.03071e-06 1.62876e-07 0)
(7.79879e-06 1.82316e-07 0)
(7.53945e-06 2.01314e-07 0)
(7.25352e-06 2.19727e-07 0)
(6.94198e-06 2.37423e-07 0)
(6.60615e-06 2.5422e-07 0)
(6.24765e-06 2.69845e-07 0)
(5.86823e-06 2.84034e-07 0)
(5.46999e-06 2.96568e-07 0)
(5.05545e-06 3.07169e-07 0)
(4.62752e-06 3.15562e-07 0)
(4.18949e-06 3.21527e-07 0)
(3.74517e-06 3.24733e-07 0)
(3.29889e-06 3.24695e-07 0)
(2.85537e-06 3.20914e-07 0)
(2.41995e-06 3.12919e-07 0)
(1.99863e-06 3.0022e-07 0)
(1.59803e-06 2.8226e-07 0)
(1.22532e-06 2.5845e-07 0)
(8.88214e-07 2.28222e-07 0)
(5.94802e-07 1.91095e-07 0)
(3.53114e-07 1.46998e-07 0)
(1.70301e-07 9.68998e-08 0)
(5.10788e-08 4.37778e-08 0)
(-5.02554e-09 -4.61622e-09 0)
(-8.96187e-09 -2.56498e-08 0)
(4.27441e-08 -3.1709e-08 0)
(1.16556e-07 -2.01654e-08 0)
(2.64605e-07 -1.10758e-07 0)
(4.73928e-07 -2.52134e-07 0)
(7.65594e-07 -3.95283e-07 0)
(1.13649e-06 -5.19229e-07 0)
(1.57852e-06 -6.19269e-07 0)
(2.07932e-06 -6.9765e-07 0)
(2.62712e-06 -7.55638e-07 0)
(3.20983e-06 -7.96174e-07 0)
(3.81634e-06 -8.2184e-07 0)
(4.43782e-06 -8.34166e-07 0)
(5.06443e-06 -8.35437e-07 0)
(5.68834e-06 -8.26934e-07 0)
(6.30272e-06 -8.0936e-07 0)
(6.90062e-06 -7.84601e-07 0)
(7.477e-06 -7.53346e-07 0)
(8.02745e-06 -7.16377e-07 0)
(8.54735e-06 -6.75008e-07 0)
(9.03334e-06 -6.2962e-07 0)
(9.48265e-06 -5.80811e-07 0)
(9.89256e-06 -5.29362e-07 0)
(1.02613e-05 -4.75912e-07 0)
(1.05874e-05 -4.20779e-07 0)
(1.08697e-05 -3.64568e-07 0)
(1.11073e-05 -3.07763e-07 0)
(1.13001e-05 -2.50575e-07 0)
(1.14478e-05 -1.93506e-07 0)
(1.15505e-05 -1.3695e-07 0)
(1.16088e-05 -8.11056e-08 0)
(1.16233e-05 -2.6327e-08 0)
(1.15947e-05 2.71379e-08 0)
(1.15243e-05 7.91895e-08 0)
(1.14133e-05 1.2961e-07 0)
(1.12632e-05 1.78135e-07 0)
(1.10754e-05 2.24579e-07 0)
(1.08518e-05 2.68785e-07 0)
(1.05941e-05 3.10611e-07 0)
(1.03041e-05 3.49956e-07 0)
(9.98395e-06 3.86757e-07 0)
(9.63563e-06 4.21e-07 0)
(9.26127e-06 4.52633e-07 0)
(8.8631e-06 4.81458e-07 0)
(8.44329e-06 5.07422e-07 0)
(8.00409e-06 5.30621e-07 0)
(7.54784e-06 5.51063e-07 0)
(7.07668e-06 5.68668e-07 0)
(6.59285e-06 5.83392e-07 0)
(6.0988e-06 5.95321e-07 0)
(5.5968e-06 6.04497e-07 0)
(5.08903e-06 6.1085e-07 0)
(4.5777e-06 6.14395e-07 0)
(4.06509e-06 6.15267e-07 0)
(3.5534e-06 6.13548e-07 0)
(3.04474e-06 6.09187e-07 0)
(2.54115e-06 6.02169e-07 0)
(2.04457e-06 5.92697e-07 0)
(1.55696e-06 5.80976e-07 0)
(1.08032e-06 5.66994e-07 0)
(6.16516e-07 5.50754e-07 0)
(1.67172e-07 5.32358e-07 0)
(-2.66002e-07 5.11913e-07 0)
(-6.81314e-07 4.89591e-07 0)
(-1.07723e-06 4.65495e-07 0)
(-1.45239e-06 4.3961e-07 0)
(-1.8055e-06 4.1203e-07 0)
(-2.13523e-06 3.82973e-07 0)
(-2.44025e-06 3.52562e-07 0)
(-2.71956e-06 3.20849e-07 0)
(-2.97231e-06 2.87964e-07 0)
(-3.19759e-06 2.5409e-07 0)
(-3.39451e-06 2.19368e-07 0)
(-3.56238e-06 1.83868e-07 0)
(-3.70059e-06 1.47661e-07 0)
(-3.80866e-06 1.10865e-07 0)
(-3.88626e-06 7.36125e-08 0)
(-3.93309e-06 3.60351e-08 0)
(-3.94882e-06 -1.70306e-09 0)
(-3.93337e-06 -3.94538e-08 0)
(-3.88681e-06 -7.71622e-08 0)
(-3.80925e-06 -1.14764e-07 0)
(-3.70092e-06 -1.52035e-07 0)
(-3.56207e-06 -1.88769e-07 0)
(-3.3931e-06 -2.24901e-07 0)
(-3.19457e-06 -2.60375e-07 0)
(-2.96706e-06 -2.95114e-07 0)
(-2.71126e-06 -3.28974e-07 0)
(-2.42802e-06 -3.6173e-07 0)
(-2.11827e-06 -3.93246e-07 0)
(-1.78295e-06 -4.23479e-07 0)
(-1.42312e-06 -4.5238e-07 0)
(-1.03996e-06 -4.79838e-07 0)
(-6.3473e-07 -5.05655e-07 0)
(-2.08757e-07 -5.29661e-07 0)
(2.36602e-07 -5.51802e-07 0)
(6.99923e-07 -5.72118e-07 0)
(1.17959e-06 -5.90605e-07 0)
(1.67389e-06 -6.07109e-07 0)
(2.18113e-06 -6.21435e-07 0)
(2.69957e-06 -6.33477e-07 0)
(3.2274e-06 -6.43209e-07 0)
(3.7628e-06 -6.50683e-07 0)
(4.30388e-06 -6.55877e-07 0)
(4.84865e-06 -6.58642e-07 0)
(5.39506e-06 -6.58855e-07 0)
(5.94096e-06 -6.56416e-07 0)
(6.48431e-06 -6.5129e-07 0)
(7.02306e-06 -6.43553e-07 0)
(7.55502e-06 -6.33197e-07 0)
(8.07797e-06 -6.20125e-07 0)
(8.58976e-06 -6.04334e-07 0)
(9.08829e-06 -5.8586e-07 0)
(9.57138e-06 -5.64706e-07 0)
(1.00368e-05 -5.40913e-07 0)
(1.04822e-05 -5.14489e-07 0)
(1.09056e-05 -4.8544e-07 0)
(1.1305e-05 -4.53852e-07 0)
(1.16782e-05 -4.19734e-07 0)
(1.20233e-05 -3.83048e-07 0)
(1.23382e-05 -3.43908e-07 0)
(1.26211e-05 -3.0248e-07 0)
(1.28702e-05 -2.58888e-07 0)
(1.30837e-05 -2.13236e-07 0)
(1.326e-05 -1.65589e-07 0)
(1.33976e-05 -1.1604e-07 0)
(1.34951e-05 -6.47858e-08 0)
(1.35512e-05 -1.20056e-08 0)
(1.35647e-05 4.21467e-08 0)
(1.35346e-05 9.74139e-08 0)
(1.34603e-05 1.53539e-07 0)
(1.33411e-05 2.10346e-07 0)
(1.31767e-05 2.67544e-07 0)
(1.2967e-05 3.24766e-07 0)
(1.27118e-05 3.81739e-07 0)
(1.24115e-05 4.38139e-07 0)
(1.2067e-05 4.93542e-07 0)
(1.16792e-05 5.47555e-07 0)
(1.12494e-05 5.99796e-07 0)
(1.07792e-05 6.49801e-07 0)
(1.02706e-05 6.97054e-07 0)
(9.72624e-06 7.40966e-07 0)
(9.14893e-06 7.80845e-07 0)
(8.5422e-06 8.15963e-07 0)
(7.91007e-06 8.45613e-07 0)
(7.25705e-06 8.69048e-07 0)
(6.58832e-06 8.85453e-07 0)
(5.90973e-06 8.93921e-07 0)
(5.22785e-06 8.93402e-07 0)
(4.55e-06 8.82697e-07 0)
(3.88435e-06 8.6056e-07 0)
(3.23971e-06 8.25789e-07 0)
(2.62567e-06 7.77153e-07 0)
(2.05263e-06 7.13407e-07 0)
(1.53141e-06 6.3358e-07 0)
(1.07289e-06 5.37299e-07 0)
(6.8753e-07 4.25329e-07 0)
(3.84245e-07 3.00761e-07 0)
(1.68549e-07 1.70848e-07 0)
(4.21182e-08 5.1049e-08 0)
(5.60765e-10 -2.13058e-08 0)
(3.57037e-08 -1.29835e-07 0)
(1.44487e-07 -1.90704e-07 0)
(3.76457e-07 -3.47795e-07 0)
(6.98233e-07 -5.70013e-07 0)
(1.11329e-06 -7.97817e-07 0)
(1.61939e-06 -1.00134e-06 0)
(2.20537e-06 -1.17191e-06 0)
(2.86027e-06 -1.30806e-06 0)
(3.57035e-06 -1.41181e-06 0)
(4.32154e-06 -1.48631e-06 0)
(5.10189e-06 -1.53346e-06 0)
(5.89856e-06 -1.55703e-06 0)
(6.70074e-06 -1.55961e-06 0)
(7.4989e-06 -1.54327e-06 0)
(8.28328e-06 -1.51088e-06 0)
(9.04591e-06 -1.4641e-06 0)
(9.78006e-06 -1.40454e-06 0)
(1.0479e-05 -1.33439e-06 0)
(1.11376e-05 -1.25512e-06 0)
(1.17514e-05 -1.16801e-06 0)
(1.23162e-05 -1.07454e-06 0)
(1.28288e-05 -9.75861e-07 0)
(1.32866e-05 -8.72962e-07 0)
(1.36876e-05 -7.66901e-07 0)
(1.40302e-05 -6.58742e-07 0)
(1.43134e-05 -5.49088e-07 0)
(1.45366e-05 -4.38829e-07 0)
(1.46997e-05 -3.28795e-07 0)
(1.48028e-05 -2.19476e-07 0)
(1.48465e-05 -1.11536e-07 0)
(1.48315e-05 -5.6253e-09 0)
(1.47592e-05 9.79229e-08 0)
(1.46309e-05 1.98692e-07 0)
(1.44484e-05 2.96147e-07 0)
(1.42135e-05 3.89964e-07 0)
(1.39283e-05 4.79873e-07 0)
(1.35952e-05 5.65459e-07 0)
(1.32164e-05 6.46421e-07 0)
(1.27946e-05 7.22611e-07 0)
(1.23325e-05 7.93836e-07 0)
(1.18329e-05 8.59977e-07 0)
(1.12984e-05 9.20942e-07 0)
(1.07322e-05 9.76555e-07 0)
(1.01372e-05 1.02673e-06 0)
(9.51659e-06 1.0715e-06 0)
(8.8733e-06 1.11073e-06 0)
(8.21039e-06 1.14434e-06 0)
(7.531e-06 1.17241e-06 0)
(6.83835e-06 1.19502e-06 0)
(6.13542e-06 1.21211e-06 0)
(5.42521e-06 1.2237e-06 0)
(4.71084e-06 1.22989e-06 0)
(3.99535e-06 1.23085e-06 0)
(3.28162e-06 1.22667e-06 0)
(2.57245e-06 1.21738e-06 0)
(1.87078e-06 1.20301e-06 0)
(1.17945e-06 1.18371e-06 0)
(5.00997e-07 1.1598e-06 0)
(-1.62032e-07 1.13145e-06 0)
(-8.0712e-07 1.09874e-06 0)
(-1.4319e-06 1.06183e-06 0)
(-2.03397e-06 1.02096e-06 0)
(-2.61109e-06 9.76357e-07 0)
(-3.16128e-06 9.28173e-07 0)
(-3.68261e-06 8.7649e-07 0)
(-4.17321e-06 8.21595e-07 0)
(-4.63132e-06 7.63844e-07 0)
(-5.05531e-06 7.0339e-07 0)
(-5.44373e-06 6.40344e-07 0)
(-5.79522e-06 5.74972e-07 0)
(-6.10852e-06 5.07577e-07 0)
(-6.38255e-06 4.38409e-07 0)
(-6.61642e-06 3.67731e-07 0)
(-6.80931e-06 2.95767e-07 0)
(-6.96051e-06 2.22679e-07 0)
(-7.06948e-06 1.48676e-07 0)
(-7.13577e-06 7.40647e-08 0)
(-7.15904e-06 -8.61543e-10 0)
(-7.13923e-06 -7.58838e-08 0)
(-7.07646e-06 -1.50804e-07 0)
(-6.97083e-06 -2.25402e-07 0)
(-6.82252e-06 -2.99377e-07 0)
(-6.63198e-06 -3.72422e-07 0)
(-6.3998e-06 -4.4433e-07 0)
(-6.12676e-06 -5.14878e-07 0)
(-5.81363e-06 -5.83839e-07 0)
(-5.46125e-06 -6.51041e-07 0)
(-5.07073e-06 -7.16229e-07 0)
(-4.64341e-06 -7.79102e-07 0)
(-4.18066e-06 -8.39414e-07 0)
(-3.68393e-06 -8.96971e-07 0)
(-3.15474e-06 -9.51629e-07 0)
(-2.59474e-06 -1.00319e-06 0)
(-2.00571e-06 -1.05137e-06 0)
(-1.38965e-06 -1.09595e-06 0)
(-7.48591e-07 -1.13683e-06 0)
(-8.46696e-08 -1.17394e-06 0)
(5.99934e-07 -1.20713e-06 0)
(1.30294e-06 -1.23616e-06 0)
(2.02189e-06 -1.26082e-06 0)
(2.75423e-06 -1.28095e-06 0)
(3.49741e-06 -1.29643e-06 0)
(4.2489e-06 -1.30722e-06 0)
(5.00609e-06 -1.31324e-06 0)
(5.7662e-06 -1.31437e-06 0)
(6.52635e-06 -1.31048e-06 0)
(7.2836e-06 -1.30138e-06 0)
(8.03507e-06 -1.28703e-06 0)
(8.77789e-06 -1.26748e-06 0)
(9.50914e-06 -1.24268e-06 0)
(1.02258e-05 -1.21253e-06 0)
(1.0925e-05 -1.17709e-06 0)
(1.16038e-05 -1.1364e-06 0)
(1.22591e-05 -1.09051e-06 0)
(1.2888e-05 -1.03948e-06 0)
(1.34876e-05 -9.83278e-07 0)
(1.4055e-05 -9.21981e-07 0)
(1.45877e-05 -8.55778e-07 0)
(1.50827e-05 -7.84745e-07 0)
(1.55373e-05 -7.08957e-07 0)
(1.5949e-05 -6.28634e-07 0)
(1.63154e-05 -5.44008e-07 0)
(1.66342e-05 -4.553e-07 0)
(1.69031e-05 -3.62765e-07 0)
(1.71202e-05 -2.66647e-07 0)
(1.72834e-05 -1.67225e-07 0)
(1.73912e-05 -6.48766e-08 0)
(1.7442e-05 4.00471e-08 0)
(1.74344e-05 1.47186e-07 0)
(1.73675e-05 2.56044e-07 0)
(1.72406e-05 3.66106e-07 0)
(1.70531e-05 4.76852e-07 0)
(1.68049e-05 5.87635e-07 0)
(1.64961e-05 6.9782e-07 0)
(1.61272e-05 8.06842e-07 0)
(1.5699e-05 9.14013e-07 0)
(1.52129e-05 1.01848e-06 0)
(1.46709e-05 1.11936e-06 0)
(1.4075e-05 1.21573e-06 0)
(1.34281e-05 1.30658e-06 0)
(1.27335e-05 1.39083e-06 0)
(1.19951e-05 1.46731e-06 0)
(1.12174e-05 1.53475e-06 0)
(1.04059e-05 1.59175e-06 0)
(9.56656e-06 1.63679e-06 0)
(8.70614e-06 1.66832e-06 0)
(7.83229e-06 1.68461e-06 0)
(6.95345e-06 1.6838e-06 0)
(6.07888e-06 1.66394e-06 0)
(5.2189e-06 1.62294e-06 0)
(4.38471e-06 1.55867e-06 0)
(3.58812e-06 1.46918e-06 0)
(2.84165e-06 1.35273e-06 0)
(2.15832e-06 1.20807e-06 0)
(1.55106e-06 1.03508e-06 0)
(1.03205e-06 8.35735e-07 0)
(6.11689e-07 6.15608e-07 0)
(2.97066e-07 3.86055e-07 0)
(9.45155e-08 1.68837e-07 0)
(1.10412e-08 1.07564e-08 0)
(3.17435e-08 -2.02365e-07 0)
(1.69655e-07 -4.05007e-07 0)
(4.71676e-07 -6.71009e-07 0)
(8.90671e-07 -9.96629e-07 0)
(1.41724e-06 -1.32176e-06 0)
(2.04353e-06 -1.61544e-06 0)
(2.75813e-06 -1.86398e-06 0)
(3.54718e-06 -2.0646e-06 0)
(4.3958e-06 -2.21948e-06 0)
(5.29012e-06 -2.33038e-06 0)
(6.21493e-06 -2.40168e-06 0)
(7.15671e-06 -2.43678e-06 0)
(8.1032e-06 -2.43888e-06 0)
(9.04222e-06 -2.41214e-06 0)
(9.96346e-06 -2.35978e-06 0)
(1.08577e-05 -2.28449e-06 0)
(1.17159e-05 -2.18945e-06 0)
(1.25309e-05 -2.07723e-06 0)
(1.32963e-05 -1.95005e-06 0)
(1.40063e-05 -1.81042e-06 0)
(1.46562e-05 -1.66037e-06 0)
(1.52421e-05 -1.50176e-06 0)
(1.57607e-05 -1.33638e-06 0)
(1.62095e-05 -1.16589e-06 0)
(1.65867e-05 -9.91732e-07 0)
(1.6891e-05 -8.15238e-07 0)
(1.71216e-05 -6.3775e-07 0)
(1.72782e-05 -4.60392e-07 0)
(1.73612e-05 -2.84214e-07 0)
(1.7371e-05 -1.10263e-07 0)
(1.73089e-05 6.06078e-08 0)
(1.71762e-05 2.27681e-07 0)
(1.69747e-05 3.90146e-07 0)
(1.67064e-05 5.47285e-07 0)
(1.63738e-05 6.98594e-07 0)
(1.59793e-05 8.43533e-07 0)
(1.55259e-05 9.81535e-07 0)
(1.50163e-05 1.11216e-06 0)
(1.44539e-05 1.2351e-06 0)
(1.3842e-05 1.35003e-06 0)
(1.31841e-05 1.45662e-06 0)
(1.24836e-05 1.55469e-06 0)
(1.17442e-05 1.6441e-06 0)
(1.09697e-05 1.72474e-06 0)
(1.01639e-05 1.79651e-06 0)
(9.3305e-06 1.85923e-06 0)
(8.47342e-06 1.91285e-06 0)
(7.59662e-06 1.95752e-06 0)
(6.70394e-06 1.99318e-06 0)
(5.79914e-06 2.01979e-06 0)
(4.88607e-06 2.0375e-06 0)
(3.96862e-06 2.04643e-06 0)
(3.05056e-06 2.04672e-06 0)
(2.13545e-06 2.03851e-06 0)
(1.2268e-06 2.02204e-06 0)
(3.28201e-07 1.99748e-06 0)
(-5.56732e-07 1.96497e-06 0)
(-1.4247e-06 1.92478e-06 0)
(-2.27258e-06 1.87719e-06 0)
(-3.09725e-06 1.82247e-06 0)
(-3.89569e-06 1.76094e-06 0)
(-4.6649e-06 1.69296e-06 0)
(-5.40214e-06 1.6188e-06 0)
(-6.10497e-06 1.53872e-06 0)
(-6.77087e-06 1.45302e-06 0)
(-7.39736e-06 1.3621e-06 0)
(-7.98233e-06 1.26637e-06 0)
(-8.52389e-06 1.16621e-06 0)
(-9.02014e-06 1.06193e-06 0)
(-9.46934e-06 9.53921e-07 0)
(-9.86991e-06 8.42556e-07 0)
(-1.02205e-05 7.2819e-07 0)
(-1.05198e-05 6.11256e-07 0)
(-1.07669e-05 4.92179e-07 0)
(-1.09611e-05 3.71307e-07 0)
(-1.11016e-05 2.49037e-07 0)
(-1.11877e-05 1.25817e-07 0)
(-1.12191e-05 2.02216e-09 0)
(-1.11958e-05 -1.22007e-07 0)
(-1.11178e-05 -2.45845e-07 0)
(-1.09853e-05 -3.69042e-07 0)
(-1.07985e-05 -4.91208e-07 0)
(-1.05579e-05 -6.11951e-07 0)
(-1.02644e-05 -7.30895e-07 0)
(-9.91884e-06 -8.47624e-07 0)
(-9.52221e-06 -9.6169e-07 0)
(-9.07569e-06 -1.07276e-06 0)
(-8.58058e-06 -1.18055e-06 0)
(-8.03844e-06 -1.28464e-06 0)
(-7.45102e-06 -1.38464e-06 0)
(-6.8202e-06 -1.48015e-06 0)
(-6.14797e-06 -1.57083e-06 0)
(-5.4363e-06 -1.65641e-06 0)
(-4.6874e-06 -1.73654e-06 0)
(-3.90378e-06 -1.81093e-06 0)
(-3.08807e-06 -1.87929e-06 0)
(-2.24294e-06 -1.94132e-06 0)
(-1.3711e-06 -1.99678e-06 0)
(-4.75377e-07 -2.04544e-06 0)
(4.41165e-07 -2.08705e-06 0)
(1.37537e-06 -2.12139e-06 0)
(2.32402e-06 -2.14814e-06 0)
(3.28381e-06 -2.16707e-06 0)
(4.25145e-06 -2.17808e-06 0)
(5.22349e-06 -2.18102e-06 0)
(6.19641e-06 -2.17577e-06 0)
(7.16659e-06 -2.16218e-06 0)
(8.1303e-06 -2.14007e-06 0)
(9.08392e-06 -2.10941e-06 0)
(1.00239e-05 -2.07019e-06 0)
(1.09465e-05 -2.02229e-06 0)
(1.1848e-05 -1.96571e-06 0)
(1.27246e-05 -1.90054e-06 0)
(1.35727e-05 -1.82685e-06 0)
(1.43886e-05 -1.74472e-06 0)
(1.51688e-05 -1.6542e-06 0)
(1.59095e-05 -1.55536e-06 0)
(1.66075e-05 -1.44843e-06 0)
(1.72593e-05 -1.3337e-06 0)
(1.78615e-05 -1.21137e-06 0)
(1.84109e-05 -1.08168e-06 0)
(1.89045e-05 -9.44986e-07 0)
(1.93394e-05 -8.01627e-07 0)
(1.97129e-05 -6.51991e-07 0)
(2.00225e-05 -4.96564e-07 0)
(2.02658e-05 -3.35859e-07 0)
(2.04408e-05 -1.70437e-07 0)
(2.05456e-05 -9.20615e-10 0)
(2.05785e-05 1.72073e-07 0)
(2.05383e-05 3.4785e-07 0)
(2.04241e-05 5.25565e-07 0)
(2.02354e-05 7.04315e-07 0)
(1.99719e-05 8.83148e-07 0)
(1.96338e-05 1.06102e-06 0)
(1.92219e-05 1.23683e-06 0)
(1.87371e-05 1.40949e-06 0)
(1.81812e-05 1.57775e-06 0)
(1.75563e-05 1.74019e-06 0)
(1.68653e-05 1.89528e-06 0)
(1.61115e-05 2.04143e-06 0)
(1.52991e-05 2.17687e-06 0)
(1.44329e-05 2.29971e-06 0)
(1.35185e-05 2.408e-06 0)
(1.25622e-05 2.49963e-06 0)
(1.15713e-05 2.57227e-06 0)
(1.0554e-05 2.62342e-06 0)
(9.51932e-06 2.65044e-06 0)
(8.4772e-06 2.65053e-06 0)
(7.43861e-06 2.62078e-06 0)
(6.41551e-06 2.55827e-06 0)
(5.42074e-06 2.46007e-06 0)
(4.46789e-06 2.32345e-06 0)
(3.57113e-06 2.14619e-06 0)
(2.745e-06 1.92696e-06 0)
(2.00399e-06 1.66603e-06 0)
(1.36199e-06 1.36642e-06 0)
(8.31262e-07 1.03573e-06 0)
(4.21241e-07 6.88296e-07 0)
(1.44353e-07 3.49651e-07 0)
(2.05769e-08 7.07439e-08 0)
(3.25935e-08 -2.91201e-07 0)
(1.96929e-07 -6.64445e-07 0)
(5.58107e-07 -1.07008e-06 0)
(1.0608e-06 -1.51753e-06 0)
(1.68327e-06 -1.95333e-06 0)
(2.41487e-06 -2.34451e-06 0)
(3.24066e-06 -2.67705e-06 0)
(4.14423e-06 -2.94738e-06 0)
(5.11051e-06 -3.15542e-06 0)
(6.12306e-06 -3.3051e-06 0)
(7.16635e-06 -3.40038e-06 0)
(8.22598e-06 -3.44537e-06 0)
(9.2874e-06 -3.44507e-06 0)
(1.03379e-05 -3.40398e-06 0)
(1.1366e-05 -3.3262e-06 0)
(1.23607e-05 -3.21624e-06 0)
(1.33128e-05 -3.078e-06 0)
(1.42137e-05 -2.91494e-06 0)
(1.50559e-05 -2.73061e-06 0)
(1.58332e-05 -2.52819e-06 0)
(1.65399e-05 -2.31057e-06 0)
(1.71716e-05 -2.08051e-06 0)
(1.77246e-05 -1.84058e-06 0)
(1.81959e-05 -1.59311e-06 0)
(1.85833e-05 -1.34017e-06 0)
(1.88854e-05 -1.08389e-06 0)
(1.91012e-05 -8.26032e-07 0)
(1.92305e-05 -5.68252e-07 0)
(1.92736e-05 -3.12224e-07 0)
(1.92311e-05 -5.93107e-08 0)
(1.91044e-05 1.89242e-07 0)
(1.88951e-05 4.32175e-07 0)
(1.86052e-05 6.68409e-07 0)
(1.82372e-05 8.96988e-07 0)
(1.77939e-05 1.11702e-06 0)
(1.72783e-05 1.32768e-06 0)
(1.66936e-05 1.52825e-06 0)
(1.60435e-05 1.71811e-06 0)
(1.53316e-05 1.89675e-06 0)
(1.45619e-05 2.06373e-06 0)
(1.37384e-05 2.21853e-06 0)
(1.28655e-05 2.36082e-06 0)
(1.19473e-05 2.49042e-06 0)
(1.09884e-05 2.60713e-06 0)
(9.99319e-06 2.7107e-06 0)
(8.96614e-06 2.80103e-06 0)
(7.91201e-06 2.87813e-06 0)
(6.83537e-06 2.942e-06 0)
(5.74071e-06 2.99257e-06 0)
(4.63264e-06 3.02991e-06 0)
(3.51574e-06 3.05423e-06 0)
(2.39455e-06 3.06568e-06 0)
(1.27351e-06 3.06437e-06 0)
(1.57009e-07 3.05048e-06 0)
(-9.50761e-07 3.02433e-06 0)
(-2.04561e-06 2.98634e-06 0)
(-3.12332e-06 2.93677e-06 0)
(-4.17992e-06 2.87592e-06 0)
(-5.21166e-06 2.80414e-06 0)
(-6.21475e-06 2.72182e-06 0)
(-7.18555e-06 2.6295e-06 0)
(-8.12063e-06 2.52764e-06 0)
(-9.01674e-06 2.41659e-06 0)
(-9.87087e-06 2.2968e-06 0)
(-1.068e-05 2.16887e-06 0)
(-1.14413e-05 2.03329e-06 0)
(-1.2152e-05 1.8905e-06 0)
(-1.28101e-05 1.74106e-06 0)
(-1.34131e-05 1.58558e-06 0)
(-1.39591e-05 1.42463e-06 0)
(-1.44462e-05 1.25876e-06 0)
(-1.48727e-05 1.08853e-06 0)
(-1.52372e-05 9.14468e-07 0)
(-1.55385e-05 7.37148e-07 0)
(-1.57756e-05 5.5717e-07 0)
(-1.59476e-05 3.75182e-07 0)
(-1.60539e-05 1.918e-07 0)
(-1.60941e-05 7.54115e-09 0)
(-1.6068e-05 -1.77067e-07 0)
(-1.59757e-05 -3.61376e-07 0)
(-1.58173e-05 -5.44711e-07 0)
(-1.55933e-05 -7.2651e-07 0)
(-1.53043e-05 -9.06224e-07 0)
(-1.49511e-05 -1.08329e-06 0)
(-1.45348e-05 -1.25714e-06 0)
(-1.40565e-05 -1.42714e-06 0)
(-1.35179e-05 -1.59268e-06 0)
(-1.29204e-05 -1.75327e-06 0)
(-1.22658e-05 -1.9084e-06 0)
(-1.15562e-05 -2.05757e-06 0)
(-1.07938e-05 -2.20023e-06 0)
(-9.98102e-06 -2.33578e-06 0)
(-9.12027e-06 -2.46374e-06 0)
(-8.21421e-06 -2.58369e-06 0)
(-7.26578e-06 -2.69523e-06 0)
(-6.27804e-06 -2.79794e-06 0)
(-5.25417e-06 -2.89132e-06 0)
(-4.19751e-06 -2.97492e-06 0)
(-3.11148e-06 -3.04842e-06 0)
(-1.99968e-06 -3.11149e-06 0)
(-8.6582e-07 -3.16383e-06 0)
(2.86336e-07 -3.20509e-06 0)
(1.4528e-06 -3.23492e-06 0)
(2.62954e-06 -3.25302e-06 0)
(3.81246e-06 -3.25919e-06 0)
(4.99735e-06 -3.25323e-06 0)
(6.17996e-06 -3.23501e-06 0)
(7.35591e-06 -3.20435e-06 0)
(8.5208e-06 -3.16107e-06 0)
(9.6704e-06 -3.10513e-06 0)
(1.08003e-05 -3.0365e-06 0)
(1.19061e-05 -2.95515e-06 0)
(1.29832e-05 -2.86113e-06 0)
(1.40274e-05 -2.75454e-06 0)
(1.50342e-05 -2.6355e-06 0)
(1.59995e-05 -2.50416e-06 0)
(1.6919e-05 -2.36069e-06 0)
(1.77885e-05 -2.20531e-06 0)
(1.8604e-05 -2.03839e-06 0)
(1.93616e-05 -1.86037e-06 0)
(2.00575e-05 -1.67162e-06 0)
(2.06881e-05 -1.4726e-06 0)
(2.12499e-05 -1.26388e-06 0)
(2.17398e-05 -1.04599e-06 0)
(2.21548e-05 -8.19597e-07 0)
(2.24921e-05 -5.85487e-07 0)
(2.27492e-05 -3.44518e-07 0)
(2.2924e-05 -9.75873e-08 0)
(2.30146e-05 1.54327e-07 0)
(2.30195e-05 4.10171e-07 0)
(2.29377e-05 6.6879e-07 0)
(2.27685e-05 9.28899e-07 0)
(2.25116e-05 1.1891e-06 0)
(2.21673e-05 1.44792e-06 0)
(2.17363e-05 1.70373e-06 0)
(2.12201e-05 1.95479e-06 0)
(2.06205e-05 2.19927e-06 0)
(1.99402e-05 2.43522e-06 0)
(1.91823e-05 2.66047e-06 0)
(1.83508e-05 2.87268e-06 0)
(1.74505e-05 3.06939e-06 0)
(1.64869e-05 3.24794e-06 0)
(1.54665e-05 3.40545e-06 0)
(1.43967e-05 3.53891e-06 0)
(1.32856e-05 3.64511e-06 0)
(1.21425e-05 3.72061e-06 0)
(1.09776e-05 3.76176e-06 0)
(9.80217e-06 3.76476e-06 0)
(8.62836e-06 3.72578e-06 0)
(7.46948e-06 3.64093e-06 0)
(6.33972e-06 3.50646e-06 0)
(5.25389e-06 3.31898e-06 0)
(4.22748e-06 3.07579e-06 0)
(3.2764e-06 2.77541e-06 0)
(2.41652e-06 2.41843e-06 0)
(1.66345e-06 2.00866e-06 0)
(1.0317e-06 1.55481e-06 0)
(5.33787e-07 1.07276e-06 0)
(1.88606e-07 5.89393e-07 0)
(2.86728e-08 1.5574e-07 0)
(3.52709e-08 -3.94862e-07 0)
(2.23663e-07 -9.6493e-07 0)
(6.35536e-07 -1.53388e-06 0)
(1.20836e-06 -2.12136e-06 0)
(1.91309e-06 -2.67773e-06 0)
(2.73399e-06 -3.17305e-06 0)
(3.65306e-06 -3.59403e-06 0)
(4.65313e-06 -3.93541e-06 0)
(5.71604e-06 -4.19855e-06 0)
(6.82479e-06 -4.38673e-06 0)
(7.96319e-06 -4.50437e-06 0)
(9.11501e-06 -4.55723e-06 0)
(1.02654e-05 -4.55096e-06 0)
(1.14006e-05 -4.49074e-06 0)
(1.25079e-05 -4.38239e-06 0)
(1.35757e-05 -4.2312e-06 0)
(1.45937e-05 -4.04211e-06 0)
(1.55527e-05 -3.81998e-06 0)
(1.64445e-05 -3.56929e-06 0)
(1.72621e-05 -3.29427e-06 0)
(1.79994e-05 -2.99871e-06 0)
(1.86514e-05 -2.68638e-06 0)
(1.92139e-05 -2.36065e-06 0)
(1.96838e-05 -2.02459e-06 0)
(2.00585e-05 -1.68115e-06 0)
(2.03364e-05 -1.33309e-06 0)
(2.05165e-05 -9.82789e-07 0)
(2.05985e-05 -6.32632e-07 0)
(2.05827e-05 -2.8476e-07 0)
(2.04701e-05 5.89699e-08 0)
(2.0262e-05 3.9673e-07 0)
(1.99603e-05 7.26833e-07 0)
(1.95673e-05 1.04787e-06 0)
(1.90859e-05 1.35853e-06 0)
(1.85192e-05 1.65752e-06 0)
(1.78706e-05 1.94371e-06 0)
(1.71439e-05 2.21617e-06 0)
(1.63432e-05 2.47402e-06 0)
(1.54727e-05 2.7165e-06 0)
(1.4537e-05 2.94299e-06 0)
(1.35406e-05 3.15287e-06 0)
(1.24885e-05 3.3457e-06 0)
(1.13856e-05 3.52118e-06 0)
(1.02371e-05 3.67889e-06 0)
(9.04782e-06 3.81855e-06 0)
(7.82323e-06 3.94013e-06 0)
(6.56864e-06 4.04356e-06 0)
(5.28921e-06 4.12873e-06 0)
(3.99022e-06 4.19565e-06 0)
(2.677e-06 4.24447e-06 0)
(1.3548e-06 4.27537e-06 0)
(2.87749e-08 4.28859e-06 0)
(-1.29602e-06 4.28436e-06 0)
(-2.61449e-06 4.26288e-06 0)
(-3.92163e-06 4.22451e-06 0)
(-5.21266e-06 4.1698e-06 0)
(-6.48285e-06 4.09916e-06 0)
(-7.72764e-06 4.013e-06 0)
(-8.94263e-06 3.91183e-06 0)
(-1.01234e-05 3.79624e-06 0)
(-1.12658e-05 3.66686e-06 0)
(-1.23659e-05 3.52425e-06 0)
(-1.342e-05 3.36896e-06 0)
(-1.44244e-05 3.20169e-06 0)
(-1.53758e-05 3.02322e-06 0)
(-1.62709e-05 2.83423e-06 0)
(-1.71067e-05 2.63533e-06 0)
(-1.78805e-05 2.42728e-06 0)