/*--------------------------------*- C++ -*----------------------------------*\
  =========                 |
  \\      /  F ield         | OpenFOAM: The Open Source CFD Toolbox
   \\    /   O peration     | Website:  https://openfoam.org
    \\  /    A nd           | Version:  7
     \\/     M anipulation  |
\*---------------------------------------------------------------------------*/
FoamFile
{
    version     2.0;
    format      ascii;
    class       volScalarField;
    location    "0.225";
    object      p;
}
// * * * * * * * * * * * * * * * * * * * * * * * * * * * * * * * * * * * * * //

dimensions      [0 2 -2 0 0 0 0];

internalField   nonuniform List<scalar> 
51200
(
-7.50067e-08
-1.34457e-05
-3.26572e-05
-5.02644e-05
-6.38401e-05
-7.49996e-05
-8.44974e-05
-9.28007e-05
-0.000100218
-0.000106956
-0.000113163
-0.000118951
-0.000124401
-0.00012957
-0.000134502
-0.000139225
-0.00014377
-0.000148164
-0.000152424
-0.000156562
-0.000160588
-0.000164499
-0.000168302
-0.000172011
-0.000175631
-0.000179168
-0.000182628
-0.000186011
-0.000189317
-0.000192549
-0.000195708
-0.00019879
-0.000201792
-0.00020472
-0.000207575
-0.000210357
-0.00021307
-0.000215714
-0.000218288
-0.000220788
-0.00022322
-0.000225586
-0.000227891
-0.000230135
-0.000232318
-0.00023444
-0.000236496
-0.000238482
-0.0002404
-0.000242254
-0.000244048
-0.000245781
-0.000247454
-0.00024907
-0.000250626
-0.000252122
-0.000253559
-0.000254939
-0.000256266
-0.000257543
-0.000258767
-0.000259941
-0.000261069
-0.000262154
-0.000263199
-0.000264205
-0.000265176
-0.000266115
-0.000267019
-0.000267888
-0.000268724
-0.000269533
-0.000270323
-0.000271095
-0.000271849
-0.000272584
-0.000273301
-0.000274007
-0.000274704
-0.000275391
-0.000276068
-0.00027674
-0.00027741
-0.000278081
-0.000278752
-0.000279423
-0.000280098
-0.000280779
-0.000281467
-0.000282165
-0.000282875
-0.000283599
-0.000284341
-0.000285102
-0.000285879
-0.00028667
-0.000287475
-0.000288303
-0.000289157
-0.000290038
-0.000290943
-0.000291871
-0.000292824
-0.000293805
-0.000294813
-0.000295848
-0.000296906
-0.000297989
-0.0002991
-0.000300242
-0.000301415
-0.000302617
-0.000303842
-0.000305091
-0.000306366
-0.00030767
-0.000309003
-0.000310362
-0.000311744
-0.000313148
-0.000314574
-0.000316024
-0.000317496
-0.000318987
-0.000320493
-0.000322014
-0.00032355
-0.000325099
-0.000326659
-0.000328226
-0.000329795
-0.000331363
-0.000332928
-0.000334486
-0.000336036
-0.000337572
-0.000339091
-0.000340586
-0.000342052
-0.000343484
-0.000344878
-0.00034623
-0.000347535
-0.000348785
-0.000349973
-0.000351091
-0.000352135
-0.000353099
-0.000353976
-0.000354758
-0.000355439
-0.000356011
-0.00035647
-0.000356812
-0.000357036
-0.000357141
-0.000357137
-0.000357043
-0.000356895
-0.000356761
-1.3707e-05
-2.6122e-05
-4.12911e-05
-5.54182e-05
-6.73901e-05
-7.76067e-05
-8.64908e-05
-9.43719e-05
-0.000101482
-0.000107985
-0.000114008
-0.000119637
-0.00012495
-0.000129998
-0.000134819
-0.000139445
-0.000143901
-0.000148205
-0.000152378
-0.000156435
-0.000160378
-0.000164215
-0.000167949
-0.000171583
-0.000175132
-0.000178604
-0.000182002
-0.000185331
-0.000188591
-0.00019178
-0.000194899
-0.000197943
-0.000200912
-0.000203806
-0.000206625
-0.000209371
-0.000212052
-0.000214667
-0.000217217
-0.000219703
-0.000222126
-0.000224486
-0.000226786
-0.000229024
-0.000231204
-0.000233325
-0.000235384
-0.000237377
-0.000239307
-0.000241176
-0.000242982
-0.000244729
-0.000246419
-0.000248055
-0.000249635
-0.000251157
-0.000252621
-0.00025403
-0.000255388
-0.000256695
-0.000257952
-0.000259163
-0.000260331
-0.000261458
-0.000262542
-0.000263586
-0.000264596
-0.000265576
-0.000266524
-0.00026744
-0.000268324
-0.000269182
-0.000270019
-0.000270837
-0.000271636
-0.000272418
-0.000273185
-0.000273942
-0.000274686
-0.00027542
-0.000276145
-0.000276867
-0.000277588
-0.000278307
-0.000279024
-0.000279742
-0.000280463
-0.000281189
-0.000281923
-0.000282665
-0.000283418
-0.000284186
-0.000284971
-0.000285773
-0.000286588
-0.000287415
-0.000288258
-0.000289123
-0.000290012
-0.000290926
-0.000291861
-0.000292818
-0.000293798
-0.000294804
-0.000295837
-0.000296894
-0.000297974
-0.000299074
-0.000300199
-0.000301353
-0.000302537
-0.000303747
-0.000304978
-0.000306231
-0.000307508
-0.000308811
-0.000310139
-0.000311491
-0.000312862
-0.000314253
-0.000315665
-0.000317097
-0.000318549
-0.000320017
-0.000321497
-0.000322988
-0.00032449
-0.000326004
-0.000327529
-0.000329058
-0.000330585
-0.000332107
-0.000333623
-0.000335131
-0.000336629
-0.000338113
-0.000339576
-0.000341014
-0.000342421
-0.000343793
-0.000345127
-0.000346419
-0.000347665
-0.000348856
-0.000349985
-0.000351046
-0.000352035
-0.000352948
-0.00035378
-0.000354523
-0.00035517
-0.000355715
-0.000356158
-0.000356497
-0.000356732
-0.000356864
-0.000356901
-0.000356858
-0.000356753
-0.000356619
-3.32219e-05
-4.15051e-05
-5.16903e-05
-6.22994e-05
-7.21991e-05
-8.11382e-05
-8.91873e-05
-9.64884e-05
-0.000103175
-0.000109363
-0.000115135
-0.000120564
-0.000125709
-0.000130608
-0.0001353
-0.000139814
-0.000144168
-0.000148381
-0.000152471
-0.000156441
-0.000160305
-0.000164069
-0.000167733
-0.000171303
-0.00017479
-0.0001782
-0.000181543
-0.000184822
-0.000188035
-0.000191182
-0.00019426
-0.000197266
-0.000200201
-0.000203064
-0.000205854
-0.000208574
-0.000211228
-0.000213817
-0.000216345
-0.000218812
-0.000221222
-0.000223575
-0.000225868
-0.000228102
-0.00023028
-0.000232399
-0.000234456
-0.000236451
-0.000238389
-0.000240267
-0.000242085
-0.000243845
-0.00024555
-0.000247203
-0.000248801
-0.000250343
-0.00025183
-0.000253265
-0.000254649
-0.00025598
-0.000257263
-0.000258503
-0.000259706
-0.000260867
-0.000261985
-0.000263065
-0.000264112
-0.000265128
-0.00026611
-0.000267062
-0.000267986
-0.000268886
-0.000269765
-0.000270623
-0.000271461
-0.000272285
-0.000273097
-0.000273897
-0.000274681
-0.000275453
-0.000276219
-0.000276984
-0.000277748
-0.000278509
-0.000279267
-0.000280024
-0.000280784
-0.00028155
-0.000282322
-0.000283102
-0.000283893
-0.000284699
-0.000285522
-0.000286358
-0.000287203
-0.00028806
-0.000288935
-0.000289832
-0.000290753
-0.000291694
-0.000292656
-0.000293637
-0.000294641
-0.000295669
-0.000296721
-0.000297796
-0.000298891
-0.000300006
-0.000301147
-0.000302313
-0.000303506
-0.000304721
-0.000305956
-0.000307212
-0.000308491
-0.000309794
-0.000311119
-0.000312463
-0.000313827
-0.000315208
-0.000316608
-0.000318025
-0.00031946
-0.000320908
-0.000322366
-0.000323832
-0.000325308
-0.000326795
-0.000328289
-0.000329786
-0.000331278
-0.000332762
-0.000334238
-0.000335706
-0.000337163
-0.000338603
-0.00034002
-0.000341411
-0.00034277
-0.000344095
-0.000345382
-0.000346627
-0.000347824
-0.000348967
-0.000350049
-0.000351066
-0.000352014
-0.000352888
-0.000353685
-0.000354396
-0.000355018
-0.000355545
-0.000355976
-0.000356311
-0.00035655
-0.000356694
-0.00035675
-0.000356725
-0.000356621
-0.000356446
-5.10439e-05
-5.57451e-05
-6.23758e-05
-7.00733e-05
-7.79106e-05
-8.54463e-05
-9.25246e-05
-9.91268e-05
-0.000105302
-0.000111095
-0.000116563
-0.00012175
-0.000126691
-0.000131419
-0.000135963
-0.000140342
-0.00014458
-0.000148695
-0.000152691
-0.000156575
-0.000160358
-0.000164041
-0.000167633
-0.00017114
-0.000174567
-0.000177924
-0.000181215
-0.000184443
-0.000187611
-0.000190713
-0.000193748
-0.000196714
-0.000199611
-0.00020244
-0.0002052
-0.000207895
-0.000210526
-0.000213094
-0.0002156
-0.000218048
-0.000220444
-0.000222785
-0.000225069
-0.000227299
-0.000229475
-0.000231591
-0.000233645
-0.000235642
-0.000237582
-0.000239464
-0.000241291
-0.000243062
-0.000244782
-0.000246449
-0.000248061
-0.000249618
-0.000251125
-0.000252583
-0.00025399
-0.000255345
-0.000256653
-0.000257922
-0.00025915
-0.000260338
-0.000261487
-0.000262602
-0.000263684
-0.000264732
-0.000265747
-0.000266732
-0.000267691
-0.000268629
-0.000269546
-0.00027044
-0.000271314
-0.000272176
-0.000273028
-0.000273865
-0.000274686
-0.000275495
-0.0002763
-0.000277103
-0.000277904
-0.000278702
-0.000279497
-0.000280292
-0.000281089
-0.00028189
-0.000282696
-0.000283509
-0.000284334
-0.000285176
-0.000286032
-0.000286898
-0.000287771
-0.000288656
-0.000289559
-0.000290486
-0.000291433
-0.000292399
-0.000293383
-0.000294387
-0.000295414
-0.000296463
-0.000297533
-0.000298621
-0.000299727
-0.000300856
-0.00030201
-0.000303189
-0.00030439
-0.000305609
-0.000306847
-0.000308106
-0.000309387
-0.00031069
-0.000312012
-0.000313351
-0.000314706
-0.000316079
-0.000317469
-0.000318875
-0.000320295
-0.000321724
-0.000323161
-0.000324607
-0.000326062
-0.000327526
-0.000328994
-0.000330461
-0.000331922
-0.000333373
-0.000334816
-0.00033625
-0.000337671
-0.000339074
-0.000340453
-0.000341803
-0.000343121
-0.000344406
-0.000345654
-0.00034686
-0.000348017
-0.000349119
-0.000350163
-0.000351144
-0.000352059
-0.000352904
-0.000353672
-0.000354357
-0.000354958
-0.00035547
-0.000355892
-0.000356224
-0.000356465
-0.000356613
-0.000356672
-0.000356646
-0.000356524
-0.0003563
-6.46647e-05
-6.76889e-05
-7.2215e-05
-7.7843e-05
-8.39793e-05
-9.02116e-05
-9.63108e-05
-0.000102184
-0.000107796
-0.000113152
-0.000118274
-0.000123179
-0.000127887
-0.000132422
-0.000136796
-0.000141027
-0.000145138
-0.000149133
-0.000153023
-0.000156816
-0.000160508
-0.000164106
-0.000167621
-0.000171056
-0.00017442
-0.00017772
-0.000180957
-0.000184135
-0.000187254
-0.00019031
-0.000193302
-0.000196228
-0.000199085
-0.000201876
-0.000204603
-0.000207268
-0.000209873
-0.000212418
-0.000214904
-0.000217336
-0.000219715
-0.00022204
-0.000224314
-0.000226538
-0.000228707
-0.000230817
-0.000232871
-0.000234868
-0.000236809
-0.000238694
-0.000240527
-0.000242308
-0.000244041
-0.000245721
-0.000247346
-0.000248919
-0.000250445
-0.000251922
-0.000253348
-0.000254727
-0.000256064
-0.00025736
-0.000258614
-0.000259828
-0.000261007
-0.000262154
-0.000263269
-0.00026435
-0.000265397
-0.000266416
-0.000267411
-0.000268385
-0.000269337
-0.000270268
-0.000271181
-0.000272081
-0.000272969
-0.00027384
-0.000274698
-0.000275546
-0.00027639
-0.00027723
-0.000278067
-0.000278901
-0.000279732
-0.000280564
-0.000281397
-0.000282233
-0.000283072
-0.000283919
-0.000284779
-0.000285654
-0.000286541
-0.000287435
-0.000288336
-0.00028925
-0.000290183
-0.000291137
-0.00029211
-0.000293099
-0.000294105
-0.000295131
-0.000296179
-0.000297249
-0.000298336
-0.000299438
-0.000300557
-0.000301698
-0.000302865
-0.000304054
-0.000305263
-0.000306487
-0.000307729
-0.000308991
-0.000310275
-0.000311578
-0.000312897
-0.00031423
-0.000315578
-0.000316943
-0.000318324
-0.000319719
-0.000321124
-0.000322536
-0.000323954
-0.00032538
-0.000326816
-0.000328258
-0.000329702
-0.000331141
-0.000332571
-0.000333993
-0.000335405
-0.000336807
-0.000338194
-0.000339562
-0.000340905
-0.000342218
-0.0003435
-0.000344748
-0.000345959
-0.000347129
-0.000348249
-0.000349315
-0.000350324
-0.000351273
-0.00035216
-0.000352978
-0.000353721
-0.000354384
-0.000354966
-0.000355464
-0.000355879
-0.000356208
-0.000356448
-0.000356598
-0.000356656
-0.000356625
-0.000356485
-0.000356222
-7.56695e-05
-7.77083e-05
-8.09367e-05
-8.51565e-05
-8.99899e-05
-9.51169e-05
-0.000100328
-0.000105493
-0.000110545
-0.000115454
-0.000120208
-0.000124809
-0.000129266
-0.000133585
-0.000137776
-0.000141853
-0.000145821
-0.000149689
-0.000153466
-0.000157152
-0.000160749
-0.000164262
-0.000167695
-0.000171057
-0.000174354
-0.000177591
-0.000180773
-0.000183899
-0.000186966
-0.000189973
-0.000192919
-0.000195802
-0.00019862
-0.000201374
-0.000204068
-0.000206701
-0.000209276
-0.000211794
-0.00021426
-0.000216674
-0.000219036
-0.000221347
-0.000223612
-0.000225825
-0.000227982
-0.000230086
-0.000232136
-0.000234132
-0.000236074
-0.000237961
-0.000239799
-0.000241589
-0.000243331
-0.00024502
-0.000246659
-0.00024825
-0.000249794
-0.000251287
-0.000252731
-0.000254132
-0.000255495
-0.000256816
-0.000258097
-0.000259339
-0.000260548
-0.000261726
-0.000262871
-0.000263982
-0.000265061
-0.000266115
-0.000267146
-0.000268154
-0.000269138
-0.000270105
-0.000271057
-0.000271996
-0.000272918
-0.000273823
-0.000274716
-0.000275602
-0.000276484
-0.000277361
-0.000278233
-0.000279102
-0.000279969
-0.000280837
-0.000281705
-0.000282574
-0.000283446
-0.000284327
-0.000285223
-0.00028613
-0.000287045
-0.000287965
-0.000288894
-0.000289838
-0.0002908
-0.00029178
-0.000292777
-0.000293789
-0.000294817
-0.000295864
-0.000296933
-0.00029802
-0.000299123
-0.00030024
-0.000301373
-0.000302528
-0.000303707
-0.000304905
-0.00030612
-0.00030735
-0.000308598
-0.000309864
-0.000311149
-0.000312451
-0.000313767
-0.000315097
-0.000316439
-0.000317797
-0.000319169
-0.000320553
-0.000321945
-0.000323341
-0.000324742
-0.000326151
-0.000327568
-0.00032899
-0.00033041
-0.000331823
-0.000333226
-0.00033462
-0.000336005
-0.000337377
-0.000338732
-0.000340067
-0.000341377
-0.000342657
-0.000343906
-0.000345121
-0.000346299
-0.000347435
-0.000348522
-0.000349556
-0.000350535
-0.000351456
-0.000352317
-0.000353111
-0.000353832
-0.000354477
-0.000355042
-0.00035553
-0.000355937
-0.000356264
-0.000356505
-0.000356655
-0.000356712
-0.000356677
-0.000356524
-0.000356237
-8.47977e-05
-8.62107e-05
-8.85997e-05
-9.18502e-05
-9.57088e-05
-9.9952e-05
-0.000104398
-0.00010892
-0.000113444
-0.000117914
-0.000122302
-0.000126598
-0.000130791
-0.000134884
-0.000138885
-0.000142794
-0.000146615
-0.000150352
-0.000154007
-0.00015758
-0.000161077
-0.000164499
-0.00016785
-0.000171137
-0.000174365
-0.00017754
-0.000180664
-0.000183734
-0.000186749
-0.000189707
-0.000192604
-0.000195441
-0.000198217
-0.000200934
-0.000203593
-0.000206195
-0.000208738
-0.000211231
-0.000213674
-0.000216066
-0.00021841
-0.000220708
-0.00022296
-0.000225161
-0.000227308
-0.000229404
-0.000231448
-0.00023344
-0.000235379
-0.000237269
-0.000239112
-0.000240909
-0.000242657
-0.000244354
-0.000246006
-0.000247612
-0.000249171
-0.000250679
-0.000252143
-0.000253566
-0.000254951
-0.000256295
-0.0002576
-0.000258871
-0.00026011
-0.000261317
-0.00026249
-0.00026363
-0.000264741
-0.000265829
-0.000266894
-0.000267934
-0.000268951
-0.000269953
-0.000270943
-0.000271917
-0.000272873
-0.000273812
-0.000274741
-0.000275663
-0.00027658
-0.000277493
-0.000278399
-0.000279303
-0.000280205
-0.000281107
-0.000282008
-0.000282908
-0.000283813
-0.000284729
-0.000285659
-0.000286597
-0.000287539
-0.000288485
-0.000289443
-0.000290415
-0.000291405
-0.000292409
-0.000293428
-0.000294461
-0.000295512
-0.000296582
-0.00029767
-0.000298774
-0.00029989
-0.000301021
-0.00030217
-0.00030334
-0.00030453
-0.000305736
-0.000306957
-0.000308194
-0.000309447
-0.000310719
-0.000312006
-0.000313307
-0.00031462
-0.000315946
-0.000317284
-0.000318637
-0.000320002
-0.000321375
-0.000322753
-0.000324135
-0.000325522
-0.000326916
-0.000328316
-0.000329718
-0.000331116
-0.000332505
-0.000333884
-0.000335253
-0.000336612
-0.000337958
-0.000339285
-0.00034059
-0.000341868
-0.000343119
-0.000344339
-0.000345526
-0.000346675
-0.00034778
-0.000348836
-0.000349842
-0.000350796
-0.000351694
-0.000352533
-0.000353306
-0.000354008
-0.000354637
-0.00035519
-0.000355669
-0.000356073
-0.000356398
-0.00035664
-0.000356792
-0.000356849
-0.000356812
-0.000356655
-0.000356357
-9.2515e-05
-9.3521e-05
-9.53428e-05
-9.79053e-05
-0.000101044
-0.000104589
-0.000108398
-0.000112364
-0.000116404
-0.000120461
-0.000124499
-0.000128492
-0.000132425
-0.000136296
-0.000140099
-0.000143834
-0.000147504
-0.000151105
-0.000154634
-0.000158094
-0.000161486
-0.000164812
-0.000168079
-0.00017129
-0.00017445
-0.000177561
-0.000180624
-0.000183637
-0.000186599
-0.000189505
-0.000192354
-0.000195144
-0.000197877
-0.000200554
-0.000203177
-0.000205744
-0.000208259
-0.000210726
-0.000213144
-0.000215514
-0.00021784
-0.000220123
-0.000222359
-0.000224545
-0.000226682
-0.000228768
-0.000230805
-0.00023279
-0.000234726
-0.000236616
-0.000238464
-0.000240265
-0.000242017
-0.000243724
-0.000245387
-0.000247005
-0.000248574
-0.000250099
-0.000251582
-0.000253026
-0.000254431
-0.000255796
-0.000257126
-0.000258424
-0.000259691
-0.000260925
-0.000262126
-0.000263294
-0.000264437
-0.000265556
-0.000266651
-0.000267723
-0.000268775
-0.000269812
-0.000270835
-0.000271842
-0.00027283
-0.000273804
-0.000274768
-0.000275725
-0.000276677
-0.000277622
-0.000278563
-0.000279501
-0.000280438
-0.000281372
-0.000282304
-0.000283236
-0.000284174
-0.000285124
-0.000286085
-0.000287051
-0.000288019
-0.000288993
-0.000289979
-0.000290979
-0.000291995
-0.000293023
-0.000294063
-0.000295117
-0.000296189
-0.00029728
-0.000298388
-0.000299507
-0.000300638
-0.000301783
-0.000302947
-0.000304131
-0.000305332
-0.000306547
-0.000307775
-0.000309018
-0.000310278
-0.000311554
-0.000312844
-0.000314145
-0.000315456
-0.000316779
-0.000318114
-0.000319463
-0.000320822
-0.000322185
-0.000323551
-0.00032492
-0.000326295
-0.000327676
-0.000329061
-0.000330444
-0.000331821
-0.000333189
-0.000334547
-0.000335894
-0.00033723
-0.000338551
-0.000339853
-0.000341132
-0.000342383
-0.000343607
-0.000344802
-0.000345964
-0.000347087
-0.000348165
-0.000349195
-0.000350177
-0.000351109
-0.000351988
-0.000352808
-0.000353564
-0.000354251
-0.000354866
-0.000355411
-0.000355884
-0.000356286
-0.000356613
-0.000356857
-0.000357011
-0.000357072
-0.000357039
-0.000356885
-0.000356591
-9.9135e-05
-9.98723e-05
-0.000101299
-0.000103373
-0.000105967
-0.000108965
-0.000112258
-0.000115747
-0.00011936
-0.000123041
-0.000126747
-0.000130451
-0.000134135
-0.000137786
-0.000141395
-0.000144958
-0.000148472
-0.000151931
-0.000155334
-0.000158678
-0.000161965
-0.000165197
-0.000168377
-0.000171511
-0.000174602
-0.000177648
-0.000180649
-0.000183605
-0.00018651
-0.000189363
-0.000192162
-0.000194906
-0.000197596
-0.000200233
-0.000202816
-0.000205349
-0.000207835
-0.000210274
-0.000212665
-0.000215015
-0.000217323
-0.000219588
-0.000221805
-0.000223977
-0.000226101
-0.000228177
-0.000230203
-0.000232181
-0.000234114
-0.000236005
-0.000237852
-0.000239654
-0.000241412
-0.000243128
-0.000244801
-0.000246426
-0.000248006
-0.000249545
-0.000251046
-0.000252509
-0.000253932
-0.000255318
-0.000256673
-0.000257997
-0.000259289
-0.000260549
-0.000261775
-0.000262973
-0.000264147
-0.000265295
-0.000266418
-0.00026752
-0.000268606
-0.000269678
-0.000270733
-0.00027177
-0.00027279
-0.000273798
-0.000274796
-0.000275788
-0.000276771
-0.000277749
-0.000278722
-0.000279694
-0.000280664
-0.000281629
-0.000282591
-0.000283554
-0.000284527
-0.00028551
-0.000286499
-0.000287491
-0.000288486
-0.000289488
-0.000290501
-0.000291528
-0.000292568
-0.000293618
-0.000294679
-0.000295755
-0.000296848
-0.00029796
-0.000299084
-0.000300219
-0.000301365
-0.000302526
-0.000303705
-0.000304901
-0.000306112
-0.000307336
-0.000308572
-0.000309823
-0.00031109
-0.000312371
-0.000313664
-0.000314965
-0.000316276
-0.000317597
-0.00031893
-0.000320276
-0.000321629
-0.000322983
-0.000324339
-0.000325698
-0.000327062
-0.000328432
-0.000329802
-0.000331168
-0.000332527
-0.000333877
-0.000335217
-0.000336545
-0.000337861
-0.00033916
-0.000340438
-0.000341693
-0.000342921
-0.000344124
-0.000345297
-0.000346436
-0.000347536
-0.000348591
-0.000349599
-0.000350561
-0.000351475
-0.000352338
-0.000353144
-0.000353887
-0.000354562
-0.000355167
-0.000355705
-0.000356176
-0.000356579
-0.000356909
-0.000357158
-0.000357318
-0.000357386
-0.000357362
-0.000357219
-0.000356939
-0.000104876
-0.000105434
-0.000106589
-0.000108301
-0.000110486
-0.000113058
-0.000115928
-0.000119016
-0.00012226
-0.000125605
-0.000129008
-0.000132443
-0.00013589
-0.000139327
-0.000142749
-0.000146143
-0.000149501
-0.000152819
-0.000156094
-0.000159322
-0.000162504
-0.000165642
-0.000168737
-0.000171795
-0.000174814
-0.000177795
-0.000180735
-0.000183631
-0.00018648
-0.000189279
-0.000192026
-0.000194723
-0.00019737
-0.000199965
-0.00020251
-0.000205009
-0.000207464
-0.000209872
-0.000212239
-0.000214567
-0.000216856
-0.0002191
-0.0002213
-0.000223455
-0.000225565
-0.000227627
-0.000229642
-0.000231613
-0.000233542
-0.000235431
-0.000237277
-0.000239079
-0.000240841
-0.000242564
-0.000244243
-0.000245876
-0.000247467
-0.00024902
-0.000250536
-0.000252013
-0.000253454
-0.000254861
-0.000256239
-0.000257588
-0.000258904
-0.000260186
-0.000261438
-0.000262665
-0.000263867
-0.000265042
-0.000266193
-0.000267325
-0.000268444
-0.000269548
-0.000270634
-0.000271701
-0.000272752
-0.000273792
-0.000274823
-0.000275847
-0.000276862
-0.000277871
-0.000278877
-0.000279882
-0.000280882
-0.000281876
-0.000282867
-0.000283864
-0.000284869
-0.000285883
-0.000286899
-0.000287917
-0.000288938
-0.000289967
-0.000291008
-0.000292061
-0.000293123
-0.000294194
-0.000295276
-0.000296374
-0.00029749
-0.000298619
-0.000299759
-0.000300909
-0.000302071
-0.000303248
-0.000304442
-0.00030565
-0.000306871
-0.000308103
-0.000309348
-0.000310608
-0.000311883
-0.000313169
-0.000314464
-0.000315766
-0.000317077
-0.000318399
-0.000319733
-0.000321075
-0.000322422
-0.00032377
-0.000325118
-0.000326469
-0.000327824
-0.000329183
-0.000330541
-0.000331893
-0.000333236
-0.00033457
-0.000335894
-0.000337207
-0.000338505
-0.000339784
-0.000341041
-0.000342275
-0.000343485
-0.000344669
-0.000345825
-0.000346945
-0.000348024
-0.000349059
-0.000350049
-0.000350995
-0.000351896
-0.000352747
-0.000353542
-0.000354275
-0.000354941
-0.000355541
-0.000356076
-0.000356547
-0.000356953
-0.000357288
-0.000357544
-0.000357712
-0.000357792
-0.000357782
-0.000357658
-0.0003574
-0.000109898
-0.000110343
-0.0001113
-0.00011275
-0.000114626
-0.000116861
-0.000119387
-0.000122142
-0.000125066
-0.000128113
-0.000131248
-0.000134438
-0.00013766
-0.000140898
-0.000144139
-0.000147366
-0.000150574
-0.000153754
-0.000156902
-0.000160015
-0.000163093
-0.000166139
-0.000169152
-0.000172133
-0.000175081
-0.000177997
-0.000180874
-0.00018371
-0.000186502
-0.000189247
-0.000191943
-0.000194593
-0.000197194
-0.000199747
-0.000202255
-0.00020472
-0.000207141
-0.000209521
-0.000211864
-0.000214169
-0.000216434
-0.000218658
-0.00022084
-0.000222978
-0.000225072
-0.000227119
-0.000229122
-0.000231085
-0.000233009
-0.000234894
-0.000236736
-0.00023854
-0.000240306
-0.000242031
-0.000243713
-0.000245353
-0.000246955
-0.00024852
-0.000250048
-0.00025154
-0.000252997
-0.000254425
-0.000255825
-0.000257195
-0.000258533
-0.000259838
-0.000261116
-0.000262369
-0.000263596
-0.000264797
-0.000265976
-0.000267139
-0.000268289
-0.000269422
-0.000270536
-0.000271632
-0.000272715
-0.000273786
-0.000274848
-0.000275901
-0.000276947
-0.000277988
-0.000279027
-0.000280062
-0.00028109
-0.000282112
-0.000283135
-0.000284164
-0.000285201
-0.000286242
-0.000287284
-0.000288326
-0.000289373
-0.00029043
-0.000291498
-0.000292575
-0.000293658
-0.00029475
-0.000295854
-0.000296975
-0.00029811
-0.000299258
-0.000300413
-0.000301578
-0.000302755
-0.000303949
-0.000305157
-0.000306377
-0.000307607
-0.000308849
-0.000310103
-0.000311373
-0.000312655
-0.000313947
-0.000315245
-0.000316549
-0.000317862
-0.000319186
-0.000320521
-0.000321861
-0.000323203
-0.000324545
-0.000325887
-0.000327233
-0.000328581
-0.000329931
-0.000331277
-0.000332617
-0.000333948
-0.000335269
-0.00033658
-0.000337879
-0.000339161
-0.000340423
-0.000341663
-0.00034288
-0.000344074
-0.000345245
-0.000346385
-0.000347489
-0.000348551
-0.00034957
-0.000350546
-0.000351481
-0.000352372
-0.000353214
-0.000354001
-0.000354727
-0.000355389
-0.000355986
-0.000356522
-0.000356997
-0.000357408
-0.00035775
-0.000358015
-0.000358195
-0.00035829
-0.000358299
-0.000358199
-0.000357973
-0.000114326
-0.000114696
-0.000115515
-0.000116773
-0.00011841
-0.000120378
-0.000122629
-0.000125103
-0.000127754
-0.000130546
-0.000133441
-0.000136408
-0.000139427
-0.000142478
-0.000145543
-0.000148612
-0.000151674
-0.000154719
-0.000157745
-0.000160746
-0.000163724
-0.00016668
-0.000169612
-0.000172518
-0.000175397
-0.000178246
-0.00018106
-0.000183837
-0.000186571
-0.000189262
-0.000191909
-0.00019451
-0.000197064
-0.000199576
-0.000202047
-0.000204475
-0.000206864
-0.000209217
-0.000211535
-0.000213816
-0.000216058
-0.00021826
-0.000220423
-0.000222543
-0.000224618
-0.00022665
-0.000228642
-0.000230596
-0.000232513
-0.00023439
-0.00023623
-0.000238035
-0.000239802
-0.000241528
-0.000243212
-0.000244859
-0.00024647
-0.000248045
-0.000249583
-0.000251088
-0.000252562
-0.00025401
-0.00025543
-0.000256818
-0.000258175
-0.000259505
-0.000260808
-0.000262085
-0.000263334
-0.00026456
-0.000265768
-0.000266961
-0.000268139
-0.000269299
-0.00027044
-0.000271565
-0.000272678
-0.000273779
-0.000274871
-0.000275952
-0.000277027
-0.0002781
-0.000279169
-0.000280233
-0.000281288
-0.000282339
-0.000283393
-0.000284454
-0.00028552
-0.000286586
-0.000287653
-0.00028872
-0.000289794
-0.000290878
-0.00029197
-0.00029307
-0.000294174
-0.000295288
-0.000296414
-0.000297556
-0.000298711
-0.000299874
-0.000301045
-0.000302225
-0.000303419
-0.000304628
-0.000305849
-0.00030708
-0.000308321
-0.000309573
-0.000310838
-0.000312117
-0.000313407
-0.000314705
-0.000316006
-0.000317314
-0.00031863
-0.000319957
-0.000321293
-0.000322632
-0.000323971
-0.000325308
-0.000326648
-0.00032799
-0.000329333
-0.000330675
-0.000332012
-0.000333341
-0.000334662
-0.000335974
-0.000337274
-0.000338561
-0.00033983
-0.000341078
-0.000342304
-0.000343508
-0.000344691
-0.00034585
-0.000346978
-0.000348068
-0.000349117
-0.000350124
-0.000351091
-0.000352018
-0.000352902
-0.000353739
-0.000354521
-0.000355244
-0.000355904
-0.000356503
-0.000357043
-0.000357524
-0.000357943
-0.000358294
-0.00035857
-0.000358766
-0.00035888
-0.000358912
-0.000358841
-0.000358651
-0.000118247
-0.000118576
-0.000119301
-0.000120411
-0.000121864
-0.000123624
-0.000125647
-0.00012789
-0.000130315
-0.000132884
-0.000135565
-0.000138334
-0.000141168
-0.000144043
-0.000146946
-0.000149864
-0.000152785
-0.000155702
-0.00015861
-0.000161506
-0.000164389
-0.000167257
-0.000170109
-0.000172942
-0.000175753
-0.000178536
-0.000181288
-0.000184003
-0.000186681
-0.000189319
-0.000191915
-0.000194466
-0.000196977
-0.000199449
-0.00020188
-0.000204273
-0.000206631
-0.000208957
-0.000211249
-0.000213504
-0.000215723
-0.000217904
-0.000220046
-0.000222145
-0.000224202
-0.000226219
-0.0002282
-0.000230144
-0.000232051
-0.000233921
-0.000235759
-0.000237563
-0.000239328
-0.000241053
-0.000242741
-0.000244393
-0.000246011
-0.000247593
-0.000249141
-0.000250658
-0.000252149
-0.000253615
-0.000255051
-0.000256457
-0.000257834
-0.000259186
-0.000260512
-0.00026181
-0.000263081
-0.000264332
-0.000265568
-0.000266789
-0.000267994
-0.000269179
-0.000270347
-0.0002715
-0.000272642
-0.000273772
-0.00027489
-0.000276
-0.000277105
-0.000278208
-0.000279306
-0.000280395
-0.000281477
-0.000282558
-0.000283643
-0.000284734
-0.000285826
-0.000286917
-0.000288007
-0.0002891
-0.000290201
-0.00029131
-0.000292426
-0.000293546
-0.000294672
-0.000295808
-0.000296957
-0.000298119
-0.000299291
-0.000300469
-0.000301655
-0.000302853
-0.000304064
-0.000305287
-0.00030652
-0.000307762
-0.000309013
-0.000310276
-0.000311553
-0.000312842
-0.000314139
-0.000315441
-0.000316748
-0.00031806
-0.000319382
-0.000320713
-0.00032205
-0.000323388
-0.000324725
-0.000326061
-0.000327399
-0.000328739
-0.000330079
-0.000331415
-0.000332744
-0.000334066
-0.000335379
-0.000336684
-0.000337977
-0.000339254
-0.000340512
-0.000341748
-0.000342964
-0.000344159
-0.000345334
-0.000346484
-0.000347602
-0.000348682
-0.000349722
-0.000350721
-0.000351682
-0.000352604
-0.000353485
-0.000354319
-0.0003551
-0.000355822
-0.000356485
-0.000357089
-0.000357637
-0.000358127
-0.000358555
-0.000358917
-0.000359207
-0.000359421
-0.000359557
-0.000359616
-0.000359577
-0.000359429
-0.000121733
-0.000122047
-0.000122703
-0.000123705
-0.000125019
-0.000126611
-0.000128449
-0.000130503
-0.000132735
-0.000135112
-0.000137609
-0.000140201
-0.000142863
-0.000145578
-0.00014833
-0.000151106
-0.000153895
-0.00015669
-0.000159488
-0.000162284
-0.000165076
-0.000167861
-0.000170636
-0.000173397
-0.00017614
-0.000178858
-0.000181548
-0.000184204
-0.000186827
-0.000189411
-0.000191955
-0.00019446
-0.000196928
-0.000199358
-0.000201751
-0.00020411
-0.000206439
-0.000208736
-0.000211001
-0.000213232
-0.000215427
-0.000217587
-0.000219706
-0.000221784
-0.000223822
-0.000225825
-0.000227794
-0.000229726
-0.000231623
-0.000233488
-0.000235322
-0.000237121
-0.000238883
-0.000240608
-0.000242298
-0.000243955
-0.000245578
-0.000247166
-0.000248722
-0.000250252
-0.000251758
-0.000253239
-0.00025469
-0.000256113
-0.00025751
-0.000258883
-0.000260228
-0.000261546
-0.00026284
-0.000264116
-0.000265378
-0.000266625
-0.000267854
-0.000269064
-0.000270259
-0.000271439
-0.000272608
-0.000273764
-0.000274908
-0.000276046
-0.000277181
-0.000278313
-0.000279437
-0.000280551
-0.000281661
-0.000282771
-0.000283887
-0.000285005
-0.000286122
-0.000287235
-0.000288349
-0.000289468
-0.000290595
-0.000291729
-0.000292867
-0.000294008
-0.000295155
-0.000296313
-0.000297484
-0.000298665
-0.000299852
-0.000301045
-0.000302248
-0.000303463
-0.000304689
-0.000305926
-0.00030717
-0.000308422
-0.000309685
-0.00031096
-0.000312248
-0.000313547
-0.000314851
-0.000316159
-0.00031747
-0.000318789
-0.000320117
-0.000321452
-0.000322791
-0.000324129
-0.000325466
-0.000326803
-0.000328142
-0.000329481
-0.000330818
-0.00033215
-0.000333474
-0.00033479
-0.000336098
-0.000337398
-0.000338686
-0.000339956
-0.000341206
-0.000342433
-0.000343641
-0.000344831
-0.000346001
-0.000347145
-0.000348256
-0.000349329
-0.000350363
-0.000351358
-0.000352316
-0.000353237
-0.000354117
-0.000354951
-0.000355733
-0.000356459
-0.000357128
-0.000357741
-0.000358299
-0.000358801
-0.000359241
-0.000359616
-0.000359922
-0.000360156
-0.000360318
-0.000360406
-0.000360403
-0.000360299
-0.000124837
-0.000125152
-0.000125765
-0.000126688
-0.000127893
-0.000129353
-0.000131046
-0.000132942
-0.00013501
-0.000137225
-0.00013956
-0.000141992
-0.0001445
-0.000147069
-0.000149681
-0.000152325
-0.000154992
-0.000157674
-0.000160369
-0.000163071
-0.000165777
-0.000168483
-0.000171184
-0.000173875
-0.000176551
-0.000179205
-0.000181834
-0.000184434
-0.000187001
-0.000189531
-0.000192025
-0.000194485
-0.00019691