/*--------------------------------*- C++ -*----------------------------------*\
  =========                 |
  \\      /  F ield         | OpenFOAM: The Open Source CFD Toolbox
   \\    /   O peration     | Website:  https://openfoam.org
    \\  /    A nd           | Version:  7
     \\/     M anipulation  |
\*---------------------------------------------------------------------------*/
FoamFile
{
    version     2.0;
    format      ascii;
    class       volVectorField;
    location    "0.225";
    object      U;
}
// * * * * * * * * * * * * * * * * * * * * * * * * * * * * * * * * * * * * * //

dimensions      [0 1 -1 0 0 0 0];

internalField   nonuniform List<vector> 
51200
(
(-4.30669e-07 -4.18839e-07 0)
(1.29819e-07 -5.81436e-07 0)
(2.47605e-07 -2.11539e-07 0)
(6.58012e-07 -1.23275e-07 0)
(7.33591e-07 -7.14603e-08 0)
(8.13305e-07 -4.68394e-08 0)
(8.87671e-07 -3.52976e-08 0)
(9.58998e-07 -2.89207e-08 0)
(1.02638e-06 -2.56254e-08 0)
(1.08863e-06 -2.19179e-08 0)
(1.14319e-06 -1.90087e-08 0)
(1.1874e-06 -1.53929e-08 0)
(1.22087e-06 -1.0969e-08 0)
(1.24036e-06 -7.24541e-09 0)
(1.2459e-06 -2.83112e-09 0)
(1.23667e-06 1.65633e-09 0)
(1.21074e-06 5.82761e-09 0)
(1.16908e-06 1.09005e-08 0)
(1.11083e-06 1.63331e-08 0)
(1.03525e-06 2.12317e-08 0)
(9.43446e-07 2.61421e-08 0)
(8.35427e-07 3.11432e-08 0)
(7.10784e-07 3.55263e-08 0)
(5.70434e-07 4.01748e-08 0)
(4.152e-07 4.54255e-08 0)
(2.44515e-07 4.99347e-08 0)
(5.95681e-08 5.37245e-08 0)
(-1.38169e-07 5.75538e-08 0)
(-3.49207e-07 6.08817e-08 0)
(-5.72705e-07 6.35599e-08 0)
(-8.071e-07 6.63047e-08 0)
(-1.05224e-06 6.91853e-08 0)
(-1.30768e-06 7.18008e-08 0)
(-1.57192e-06 7.41581e-08 0)
(-1.8441e-06 7.66567e-08 0)
(-2.1239e-06 7.9211e-08 0)
(-2.4105e-06 8.11934e-08 0)
(-2.7029e-06 8.26775e-08 0)
(-3.00035e-06 8.41142e-08 0)
(-3.30213e-06 8.51818e-08 0)
(-3.60746e-06 8.56108e-08 0)
(-3.91533e-06 8.59495e-08 0)
(-4.22486e-06 8.65254e-08 0)
(-4.53563e-06 8.70189e-08 0)
(-4.84705e-06 8.7192e-08 0)
(-5.15804e-06 8.70711e-08 0)
(-5.46785e-06 8.67112e-08 0)
(-5.77601e-06 8.60798e-08 0)
(-6.08166e-06 8.50894e-08 0)
(-6.38394e-06 8.38734e-08 0)
(-6.68228e-06 8.27205e-08 0)
(-6.97614e-06 8.16298e-08 0)
(-7.265e-06 8.02475e-08 0)
(-7.54833e-06 7.84453e-08 0)
(-7.82534e-06 7.64522e-08 0)
(-8.09544e-06 7.44235e-08 0)
(-8.35835e-06 7.22457e-08 0)
(-8.61363e-06 6.9886e-08 0)
(-8.86056e-06 6.75551e-08 0)
(-9.09865e-06 6.52997e-08 0)
(-9.32759e-06 6.28357e-08 0)
(-9.54689e-06 5.99328e-08 0)
(-9.75595e-06 5.67054e-08 0)
(-9.95447e-06 5.34714e-08 0)
(-1.01423e-05 5.04363e-08 0)
(-1.03192e-05 4.75332e-08 0)
(-1.04849e-05 4.45184e-08 0)
(-1.0639e-05 4.12404e-08 0)
(-1.07814e-05 3.77915e-08 0)
(-1.09116e-05 3.43021e-08 0)
(-1.10296e-05 3.07746e-08 0)
(-1.11352e-05 2.72544e-08 0)
(-1.12281e-05 2.38522e-08 0)
(-1.13082e-05 2.04879e-08 0)
(-1.13754e-05 1.69181e-08 0)
(-1.14297e-05 1.30762e-08 0)
(-1.1471e-05 9.1726e-09 0)
(-1.14991e-05 5.42459e-09 0)
(-1.1514e-05 1.84662e-09 0)
(-1.15159e-05 -1.67792e-09 0)
(-1.15047e-05 -5.26507e-09 0)
(-1.14802e-05 -8.95924e-09 0)
(-1.14427e-05 -1.26963e-08 0)
(-1.13921e-05 -1.63489e-08 0)
(-1.13287e-05 -1.9857e-08 0)
(-1.12525e-05 -2.33075e-08 0)
(-1.11637e-05 -2.68055e-08 0)
(-1.10624e-05 -3.03003e-08 0)
(-1.09487e-05 -3.3672e-08 0)
(-1.08228e-05 -3.69295e-08 0)
(-1.06852e-05 -4.0191e-08 0)
(-1.05359e-05 -4.34899e-08 0)
(-1.03752e-05 -4.67099e-08 0)
(-1.02033e-05 -4.97421e-08 0)
(-1.00206e-05 -5.26049e-08 0)
(-9.82739e-06 -5.54035e-08 0)
(-9.62393e-06 -5.82112e-08 0)
(-9.41048e-06 -6.0995e-08 0)
(-9.1875e-06 -6.36651e-08 0)
(-8.95549e-06 -6.61402e-08 0)
(-8.71491e-06 -6.8394e-08 0)
(-8.46619e-06 -7.04908e-08 0)
(-8.20983e-06 -7.25091e-08 0)
(-7.94634e-06 -7.44518e-08 0)
(-7.67613e-06 -7.62659e-08 0)
(-7.39965e-06 -7.79018e-08 0)
(-7.11749e-06 -7.93627e-08 0)
(-6.8303e-06 -8.06662e-08 0)
(-6.5387e-06 -8.17817e-08 0)
(-6.24321e-06 -8.27044e-08 0)
(-5.94442e-06 -8.34784e-08 0)
(-5.64303e-06 -8.41153e-08 0)
(-5.33966e-06 -8.45919e-08 0)
(-5.03493e-06 -8.48587e-08 0)
(-4.72951e-06 -8.4874e-08 0)
(-4.42413e-06 -8.46659e-08 0)
(-4.11956e-06 -8.42607e-08 0)
(-3.81659e-06 -8.36381e-08 0)
(-3.51589e-06 -8.28116e-08 0)
(-3.21822e-06 -8.18165e-08 0)
(-2.92441e-06 -8.06443e-08 0)
(-2.63519e-06 -7.92545e-08 0)
(-2.35126e-06 -7.75817e-08 0)
(-2.07337e-06 -7.55965e-08 0)
(-1.80229e-06 -7.33793e-08 0)
(-1.53885e-06 -7.10246e-08 0)
(-1.28389e-06 -6.85425e-08 0)
(-1.03815e-06 -6.58866e-08 0)
(-8.02343e-07 -6.29772e-08 0)
(-5.77228e-07 -5.97471e-08 0)
(-3.63546e-07 -5.62121e-08 0)
(-1.62049e-07 -5.24502e-08 0)
(2.65406e-08 -4.85468e-08 0)
(2.01568e-07 -4.45574e-08 0)
(3.62382e-07 -4.04424e-08 0)
(5.08364e-07 -3.60871e-08 0)
(6.38997e-07 -3.14437e-08 0)
(7.53802e-07 -2.65916e-08 0)
(8.52332e-07 -2.16668e-08 0)
(9.34243e-07 -1.67689e-08 0)
(9.99237e-07 -1.18731e-08 0)
(1.04706e-06 -6.85639e-09 0)
(1.07761e-06 -1.67209e-09 0)
(1.09097e-06 3.56728e-09 0)
(1.08727e-06 8.71161e-09 0)
(1.06683e-06 1.36748e-08 0)
(1.03015e-06 1.843e-08 0)
(9.77872e-07 2.29742e-08 0)
(9.1099e-07 2.72464e-08 0)
(8.30894e-07 3.11091e-08 0)
(7.3928e-07 3.44187e-08 0)
(6.38233e-07 3.70166e-08 0)
(5.30395e-07 3.86644e-08 0)
(4.19078e-07 3.90341e-08 0)
(3.0849e-07 3.77226e-08 0)
(2.04021e-07 3.42221e-08 0)
(1.12335e-07 2.78847e-08 0)
(4.13102e-08 1.80407e-08 0)
(-1.92046e-10 4.902e-09 0)
(-6.1908e-09 -6.24346e-09 0)
(-5.70507e-07 1.28506e-07 0)
(-6.05743e-07 -7.17835e-07 0)
(-1.44798e-07 -3.99447e-07 0)
(2.66361e-07 -3.08861e-07 0)
(5.92852e-07 -2.43706e-07 0)
(9.0445e-07 -2.06965e-07 0)
(1.19946e-06 -1.84773e-07 0)
(1.47245e-06 -1.68502e-07 0)
(1.72156e-06 -1.51324e-07 0)
(1.94141e-06 -1.32975e-07 0)
(2.12722e-06 -1.11857e-07 0)
(2.27729e-06 -8.7233e-08 0)
(2.38511e-06 -6.07042e-08 0)
(2.45075e-06 -3.14866e-08 0)
(2.4717e-06 -4.50173e-10 0)
(2.44419e-06 3.09e-08 0)
(2.36958e-06 6.35911e-08 0)
(2.24586e-06 9.70297e-08 0)
(2.07205e-06 1.30377e-07 0)
(1.85015e-06 1.64101e-07 0)
(1.57967e-06 1.97645e-07 0)
(1.26061e-06 2.30153e-07 0)
(8.95086e-07 2.61846e-07 0)
(4.83853e-07 2.93039e-07 0)
(2.74612e-08 3.23389e-07 0)
(-4.71528e-07 3.52228e-07 0)
(-1.01129e-06 3.80271e-07 0)
(-1.59068e-06 4.06837e-07 0)
(-2.20722e-06 4.31561e-07 0)
(-2.85855e-06 4.54961e-07 0)
(-3.54292e-06 4.76948e-07 0)
(-4.25812e-06 4.97213e-07 0)
(-5.00174e-06 5.15895e-07 0)
(-5.77178e-06 5.33026e-07 0)
(-6.56584e-06 5.48705e-07 0)
(-7.38141e-06 5.62923e-07 0)
(-8.21644e-06 5.75412e-07 0)
(-9.06853e-06 5.86341e-07 0)
(-9.9351e-06 5.9591e-07 0)
(-1.08141e-05 6.03613e-07 0)
(-1.17034e-05 6.09355e-07 0)
(-1.26003e-05 6.13766e-07 0)
(-1.35026e-05 6.16885e-07 0)
(-1.44083e-05 6.18403e-07 0)
(-1.53151e-05 6.18517e-07 0)
(-1.62208e-05 6.17296e-07 0)
(-1.71232e-05 6.14535e-07 0)
(-1.80203e-05 6.10243e-07 0)
(-1.89102e-05 6.04429e-07 0)
(-1.9791e-05 5.97231e-07 0)
(-2.06606e-05 5.88974e-07 0)
(-2.15171e-05 5.79636e-07 0)
(-2.2359e-05 5.68931e-07 0)
(-2.31846e-05 5.57015e-07 0)
(-2.3992e-05 5.44186e-07 0)
(-2.47795e-05 5.30307e-07 0)
(-2.5546e-05 5.15166e-07 0)
(-2.62899e-05 4.98973e-07 0)
(-2.70097e-05 4.82039e-07 0)
(-2.7704e-05 4.64343e-07 0)
(-2.83716e-05 4.45736e-07 0)
(-2.90114e-05 4.2619e-07 0)
(-2.96221e-05 4.05752e-07 0)
(-3.02025e-05 3.84583e-07 0)
(-3.07517e-05 3.62901e-07 0)
(-3.12689e-05 3.40773e-07 0)
(-3.17534e-05 3.18125e-07 0)
(-3.22042e-05 2.94936e-07 0)
(-3.26203e-05 2.71277e-07 0)
(-3.30012e-05 2.47122e-07 0)
(-3.33465e-05 2.22397e-07 0)
(-3.36558e-05 1.97326e-07 0)
(-3.39282e-05 1.72247e-07 0)
(-3.41632e-05 1.47077e-07 0)
(-3.43606e-05 1.21463e-07 0)
(-3.45202e-05 9.53727e-08 0)
(-3.46416e-05 6.90973e-08 0)
(-3.47246e-05 4.2842e-08 0)
(-3.47692e-05 1.66304e-08 0)
(-3.47754e-05 -9.51549e-09 0)
(-3.47431e-05 -3.55859e-08 0)
(-3.46726e-05 -6.16338e-08 0)
(-3.45639e-05 -8.76363e-08 0)
(-3.44169e-05 -1.13463e-07 0)
(-3.4232e-05 -1.39029e-07 0)
(-3.40097e-05 -1.64354e-07 0)
(-3.37504e-05 -1.89425e-07 0)
(-3.34545e-05 -2.14108e-07 0)
(-3.31224e-05 -2.38313e-07 0)
(-3.27546e-05 -2.62129e-07 0)
(-3.23522e-05 -2.85642e-07 0)
(-3.19156e-05 -3.08765e-07 0)
(-3.14454e-05 -3.3132e-07 0)
(-3.09422e-05 -3.53233e-07 0)
(-3.04072e-05 -3.74524e-07 0)
(-2.98413e-05 -3.95193e-07 0)
(-2.92456e-05 -4.15222e-07 0)
(-2.8621e-05 -4.34554e-07 0)
(-2.79686e-05 -4.53081e-07 0)
(-2.72895e-05 -4.7068e-07 0)
(-2.65849e-05 -4.87304e-07 0)
(-2.58564e-05 -5.03047e-07 0)
(-2.51053e-05 -5.17988e-07 0)
(-2.4333e-05 -5.32001e-07 0)
(-2.35408e-05 -5.449e-07 0)
(-2.27301e-05 -5.56633e-07 0)
(-2.19027e-05 -5.67276e-07 0)
(-2.10605e-05 -5.76875e-07 0)
(-2.0205e-05 -5.85308e-07 0)
(-1.9338e-05 -5.92441e-07 0)
(-1.8461e-05 -5.98296e-07 0)
(-1.75759e-05 -6.02903e-07 0)
(-1.66848e-05 -6.0624e-07 0)
(-1.57896e-05 -6.08261e-07 0)
(-1.48924e-05 -6.08882e-07 0)
(-1.39952e-05 -6.08058e-07 0)
(-1.30999e-05 -6.05756e-07 0)
(-1.22087e-05 -6.01909e-07 0)
(-1.13237e-05 -5.96543e-07 0)
(-1.04473e-05 -5.89774e-07 0)
(-9.58157e-06 -5.81609e-07 0)
(-8.7287e-06 -5.71947e-07 0)
(-7.89077e-06 -5.60676e-07 0)
(-7.07006e-06 -5.4774e-07 0)
(-6.2689e-06 -5.33243e-07 0)
(-5.48953e-06 -5.17328e-07 0)
(-4.73415e-06 -4.99991e-07 0)
(-4.00488e-06 -4.81152e-07 0)
(-3.3039e-06 -4.60765e-07 0)
(-2.63337e-06 -4.38805e-07 0)
(-1.99537e-06 -4.15302e-07 0)
(-1.39189e-06 -3.9036e-07 0)
(-8.24964e-07 -3.64108e-07 0)
(-2.96513e-07 -3.36675e-07 0)
(1.91731e-07 -3.0814e-07 0)
(6.38192e-07 -2.7846e-07 0)
(1.0414e-06 -2.47599e-07 0)
(1.39995e-06 -2.15688e-07 0)
(1.71259e-06 -1.8299e-07 0)
(1.97839e-06 -1.49781e-07 0)
(2.19674e-06 -1.16247e-07 0)
(2.36718e-06 -8.24456e-08 0)
(2.48945e-06 -4.84463e-08 0)
(2.5637e-06 -1.45161e-08 0)
(2.59052e-06 1.89206e-08 0)
(2.57102e-06 5.1431e-08 0)
(2.50684e-06 8.2614e-08 0)
(2.4001e-06 1.12066e-07 0)
(2.25363e-06 1.39286e-07 0)
(2.07124e-06 1.63598e-07 0)
(1.85772e-06 1.84166e-07 0)
(1.61895e-06 1.99995e-07 0)
(1.36209e-06 2.09895e-07 0)
(1.09581e-06 2.12409e-07 0)
(8.30616e-07 2.05799e-07 0)
(5.79008e-07 1.88077e-07 0)
(3.55197e-07 1.57228e-07 0)
(1.74357e-07 1.11894e-07 0)
(5.26228e-08 5.39683e-08 0)
(4.44656e-09 -8.49063e-10 0)
(-1.74938e-07 1.62798e-07 0)
(-1.74e-07 -5.0332e-07 0)
(-2.9102e-08 -6.44799e-07 0)
(3.10957e-07 -6.48419e-07 0)
(6.9188e-07 -6.19658e-07 0)
(1.09286e-06 -5.84859e-07 0)
(1.49087e-06 -5.47827e-07 0)
(1.87186e-06 -5.0372e-07 0)
(2.22119e-06 -4.52312e-07 0)
(2.52771e-06 -3.92892e-07 0)
(2.78485e-06 -3.24133e-07 0)
(2.98219e-06 -2.4929e-07 0)
(3.1167e-06 -1.67372e-07 0)
(3.1832e-06 -7.92451e-08 0)
(3.17645e-06 1.13977e-08 0)
(3.09621e-06 1.06156e-07 0)
(2.93944e-06 2.02677e-07 0)
(2.70403e-06 2.99303e-07 0)
(2.39136e-06 3.97362e-07 0)
(2.00069e-06 4.94825e-07 0)
(1.53188e-06 5.90818e-07 0)
(9.87591e-07 6.85585e-07 0)
(3.6866e-07 7.78125e-07 0)
(-3.23819e-07 8.67751e-07 0)
(-1.08671e-06 9.54575e-07 0)
(-1.91773e-06 1.03842e-06 0)
(-2.81461e-06 1.11836e-06 0)
(-3.77392e-06 1.19457e-06 0)
(-4.79252e-06 1.26708e-06 0)
(-5.86763e-06 1.33524e-06 0)
(-6.99536e-06 1.399e-06 0)
(-8.17204e-06 1.45846e-06 0)
(-9.39472e-06 1.51309e-06 0)
(-1.06596e-05 1.56288e-06 0)
(-1.19626e-05 1.60833e-06 0)
(-1.33006e-05 1.64915e-06 0)
(-1.46697e-05 1.68517e-06 0)
(-1.60658e-05 1.71688e-06 0)
(-1.74852e-05 1.7441e-06 0)
(-1.89245e-05 1.76643e-06 0)
(-2.03799e-05 1.78407e-06 0)
(-2.18474e-05 1.79726e-06 0)
(-2.33236e-05 1.80598e-06 0)
(-2.48049e-05 1.8103e-06 0)
(-2.62877e-05 1.81032e-06 0)
(-2.77686e-05 1.80613e-06 0)
(-2.92438e-05 1.79783e-06 0)
(-3.07105e-05 1.78541e-06 0)
(-3.21654e-05 1.76876e-06 0)
(-3.36053e-05 1.74824e-06 0)
(-3.50268e-05 1.72429e-06 0)
(-3.64273e-05 1.69669e-06 0)
(-3.7804e-05 1.66539e-06 0)
(-3.91538e-05 1.63085e-06 0)
(-4.04739e-05 1.5933e-06 0)
(-4.17619e-05 1.5526e-06 0)
(-4.30155e-05 1.5088e-06 0)
(-4.42322e-05 1.46208e-06 0)
(-4.54093e-05 1.41258e-06 0)
(-4.6545e-05 1.36042e-06 0)
(-4.76372e-05 1.30577e-06 0)
(-4.86841e-05 1.24879e-06 0)
(-4.96837e-05 1.18955e-06 0)
(-5.0634e-05 1.12829e-06 0)
(-5.15335e-05 1.06521e-06 0)
(-5.23808e-05 1.00032e-06 0)
(-5.31746e-05 9.33708e-07 0)
(-5.39133e-05 8.65733e-07 0)
(-5.45954e-05 7.96509e-07 0)
(-5.52202e-05 7.25831e-07 0)
(-5.57867e-05 6.53682e-07 0)
(-5.62939e-05 5.80463e-07 0)
(-5.67408e-05 5.06576e-07 0)
(-5.71269e-05 4.32038e-07 0)
(-5.74517e-05 3.56744e-07 0)
(-5.77146e-05 2.80791e-07 0)
(-5.7915e-05 2.0437e-07 0)
(-5.80529e-05 1.27649e-07 0)
(-5.81278e-05 5.08041e-08 0)
(-5.81397e-05 -2.60289e-08 0)
(-5.80888e-05 -1.02801e-07 0)
(-5.79753e-05 -1.79409e-07 0)
(-5.77991e-05 -2.55605e-07 0)
(-5.75605e-05 -3.31223e-07 0)
(-5.72599e-05 -4.06301e-07 0)
(-5.68981e-05 -4.80804e-07 0)
(-5.64757e-05 -5.54464e-07 0)
(-5.59932e-05 -6.27002e-07 0)
(-5.54514e-05 -6.98361e-07 0)
(-5.48513e-05 -7.68623e-07 0)
(-5.41943e-05 -8.37722e-07 0)
(-5.34811e-05 -9.05424e-07 0)
(-5.27129e-05 -9.7154e-07 0)
(-5.18909e-05 -1.03598e-06 0)
(-5.10167e-05 -1.09868e-06 0)
(-5.00918e-05 -1.15949e-06 0)
(-4.9118e-05 -1.2183e-06 0)
(-4.8097e-05 -1.27498e-06 0)
(-4.70305e-05 -1.32931e-06 0)
(-4.59201e-05 -1.38106e-06 0)
(-4.47681e-05 -1.4302e-06 0)
(-4.35767e-05 -1.47679e-06 0)
(-4.23482e-05 -1.52078e-06 0)
(-4.10847e-05 -1.56192e-06 0)
(-3.97885e-05 -1.59996e-06 0)
(-3.8462e-05 -1.63481e-06 0)
(-3.7108e-05 -1.66647e-06 0)
(-3.57294e-05 -1.69483e-06 0)
(-3.43288e-05 -1.71972e-06 0)
(-3.2909e-05 -1.74099e-06 0)
(-3.14727e-05 -1.75858e-06 0)
(-3.00231e-05 -1.77245e-06 0)
(-2.85633e-05 -1.78251e-06 0)
(-2.70964e-05 -1.78868e-06 0)
(-2.56259e-05 -1.79089e-06 0)
(-2.41549e-05 -1.78898e-06 0)
(-2.26868e-05 -1.78281e-06 0)
(-2.12248e-05 -1.77228e-06 0)
(-1.97725e-05 -1.75738e-06 0)
(-1.83336e-05 -1.73818e-06 0)
(-1.69115e-05 -1.7147e-06 0)
(-1.55098e-05 -1.68684e-06 0)
(-1.41317e-05 -1.65456e-06 0)
(-1.27811e-05 -1.61783e-06 0)
(-1.14616e-05 -1.5766e-06 0)
(-1.0177e-05 -1.53091e-06 0)
(-8.93076e-06 -1.48082e-06 0)
(-7.72616e-06 -1.42639e-06 0)
(-6.56667e-06 -1.3677e-06 0)
(-5.45568e-06 -1.30479e-06 0)
(-4.39659e-06 -1.23766e-06 0)
(-3.39268e-06 -1.16644e-06 0)
(-2.44707e-06 -1.09141e-06 0)
(-1.56272e-06 -1.01283e-06 0)
(-7.42278e-07 -9.3089e-07 0)
(1.18067e-08 -8.45816e-07 0)
(6.9721e-07 -7.57832e-07 0)
(1.3117e-06 -6.67241e-07 0)
(1.85334e-06 -5.74454e-07 0)
(2.32073e-06 -4.79937e-07 0)
(2.71291e-06 -3.84234e-07 0)
(3.02939e-06 -2.87984e-07 0)
(3.27001e-06 -1.91816e-07 0)
(3.43505e-06 -9.6367e-08 0)
(3.52552e-06 -2.43454e-09 0)
(3.54326e-06 8.89604e-08 0)
(3.49095e-06 1.76594e-07 0)
(3.37217e-06 2.59089e-07 0)
(3.19157e-06 3.34894e-07 0)
(2.95507e-06 4.02251e-07 0)
(2.66994e-06 4.59107e-07 0)
(2.34503e-06 5.02954e-07 0)
(1.99105e-06 5.30815e-07 0)
(1.62073e-06 5.393e-07 0)
(1.249e-06 5.2463e-07 0)
(8.92899e-07 4.82887e-07 0)
(5.70906e-07 4.10708e-07 0)
(3.02042e-07 3.06717e-07 0)
(1.08574e-07 1.75288e-07 0)
(1.69945e-08 3.91602e-08 0)
(-6.81339e-08 4.31392e-07 0)
(2.5646e-09 -4.53033e-07 0)
(1.64048e-07 -8.38388e-07 0)
(4.98454e-07 -9.75137e-07 0)
(9.06066e-07 -1.01792e-06 0)
(1.34491e-06 -1.0132e-06 0)
(1.79072e-06 -9.73087e-07 0)
(2.21795e-06 -9.05471e-07 0)
(2.60752e-06 -8.14236e-07 0)
(2.94613e-06 -7.00177e-07 0)
(3.21816e-06 -5.69627e-07 0)
(3.41595e-06 -4.23134e-07 0)
(3.53087e-06 -2.62959e-07 0)
(3.55484e-06 -9.4237e-08 0)
(3.48463e-06 8.37613e-08 0)
(3.31566e-06 2.67628e-07 0)
(3.04429e-06 4.54192e-07 0)
(2.67079e-06 6.43714e-07 0)
(2.19348e-06 8.33655e-07 0)
(1.61187e-06 1.02222e-06 0)
(9.27645e-07 1.20927e-06 0)
(1.41482e-07 1.3934e-06 0)
(-7.44698e-07 1.57289e-06 0)
(-1.72814e-06 1.74763e-06 0)
(-2.80607e-06 1.91673e-06 0)
(-3.97533e-06 2.07931e-06 0)
(-5.23235e-06 2.2349e-06 0)
(-6.57305e-06 2.38331e-06 0)
(-7.9936e-06 2.52382e-06 0)
(-9.48969e-06 2.65628e-06 0)
(-1.10565e-05 2.78069e-06 0)
(-1.26896e-05 2.8963e-06 0)
(-1.43844e-05 3.00294e-06 0)
(-1.61354e-05 3.10081e-06 0)
(-1.7938e-05 3.18954e-06 0)
(-1.97876e-05 3.26896e-06 0)
(-2.16785e-05 3.33947e-06 0)
(-2.36056e-05 3.40109e-06 0)
(-2.55642e-05 3.45352e-06 0)
(-2.75494e-05 3.49685e-06 0)
(-2.95557e-05 3.53133e-06 0)
(-3.15783e-05 3.55693e-06 0)
(-3.36124e-05 3.57374e-06 0)
(-3.56529e-05 3.58185e-06 0)
(-3.7695e-05 3.58144e-06 0)
(-3.9734e-05 3.57283e-06 0)
(-4.17651e-05 3.5561e-06 0)
(-4.37844e-05 3.53119e-06 0)
(-4.57872e-05 3.49844e-06 0)
(-4.77689e-05 3.45831e-06 0)
(-4.97255e-05 3.41087e-06 0)
(-5.16531e-05 3.3561e-06 0)
(-5.35477e-05 3.2944e-06 0)
(-5.54051e-05 3.2263e-06 0)
(-5.72218e-05 3.15186e-06 0)
(-5.89946e-05 3.07116e-06 0)
(-6.07199e-05 2.98461e-06 0)
(-6.23943e-05 2.89251e-06 0)
(-6.40146e-05 2.79496e-06 0)
(-6.55778e-05 2.69211e-06 0)
(-6.70813e-05 2.58422e-06 0)
(-6.85225e-05 2.47167e-06 0)
(-6.98986e-05 2.3549e-06 0)
(-7.12072e-05 2.23419e-06 0)
(-7.24461e-05 2.10962e-06 0)
(-7.36132e-05 1.98127e-06 0)
(-7.47064e-05 1.84961e-06 0)
(-7.57238e-05 1.71516e-06 0)
(-7.66637e-05 1.57802e-06 0)
(-7.7525e-05 1.43817e-06 0)
(-7.8306e-05 1.29587e-06 0)
(-7.90054e-05 1.15149e-06 0)
(-7.96218e-05 1.0053e-06 0)
(-8.01546e-05 8.57492e-07 0)
(-8.0603e-05 7.0833e-07 0)
(-8.09663e-05 5.58078e-07 0)
(-8.12439e-05 4.06984e-07 0)
(-8.14352e-05 2.55346e-07 0)
(-8.154e-05 1.03449e-07 0)
(-8.15583e-05 -4.85641e-08 0)
(-8.14902e-05 -2.00534e-07 0)
(-8.13357e-05 -3.5211e-07 0)
(-8.10949e-05 -5.02882e-07 0)
(-8.07684e-05 -6.52655e-07 0)
(-8.03568e-05 -8.01394e-07 0)
(-7.98608e-05 -9.48864e-07 0)
(-7.92813e-05 -1.09462e-06 0)
(-7.8619e-05 -1.23835e-06 0)
(-7.78752e-05 -1.37997e-06 0)
(-7.70513e-05 -1.51938e-06 0)
(-7.61487e-05 -1.6563e-06 0)
(-7.51687e-05 -1.79039e-06 0)
(-7.4113e-05 -1.92135e-06 0)
(-7.29834e-05 -2.049e-06 0)
(-7.17819e-05 -2.17311e-06 0)
(-7.05107e-05 -2.29352e-06 0)
(-6.9172e-05 -2.41e-06 0)
(-6.77681e-05 -2.52223e-06 0)
(-6.63015e-05 -2.62982e-06 0)
(-6.47746e-05 -2.73251e-06 0)
(-6.31904e-05 -2.83023e-06 0)
(-6.15518e-05 -2.92286e-06 0)
(-5.98619e-05 -3.01013e-06 0)
(-5.81236e-05 -3.09166e-06 0)
(-5.63401e-05 -3.16717e-06 0)
(-5.4515e-05 -3.23651e-06 0)
(-5.26519e-05 -3.29954e-06 0)
(-5.07545e-05 -3.35601e-06 0)
(-4.88264e-05 -3.40569e-06 0)
(-4.68716e-05 -3.44834e-06 0)
(-4.48939e-05 -3.48374e-06 0)
(-4.28976e-05 -3.51173e-06 0)
(-4.08869e-05 -3.53217e-06 0)
(-3.88662e-05 -3.54492e-06 0)
(-3.68398e-05 -3.54986e-06 0)
(-3.48123e-05 -3.54672e-06 0)
(-3.2788e-05 -3.53526e-06 0)
(-3.07716e-05 -3.5154e-06 0)
(-2.8768e-05 -3.48713e-06 0)
(-2.6782e-05 -3.45036e-06 0)
(-2.48183e-05 -3.405e-06 0)
(-2.28816e-05 -3.35093e-06 0)
(-2.09768e-05 -3.28814e-06 0)
(-1.91088e-05 -3.21674e-06 0)
(-1.72824e-05 -3.13674e-06 0)
(-1.55027e-05 -3.04806e-06 0)
(-1.37744e-05 -2.95071e-06 0)
(-1.21021e-05 -2.84481e-06 0)
(-1.04905e-05 -2.73052e-06 0)
(-8.94403e-06 -2.60807e-06 0)
(-7.46717e-06 -2.47765e-06 0)
(-6.06433e-06 -2.33953e-06 0)
(-4.73971e-06 -2.19407e-06 0)
(-3.49714e-06 -2.04163e-06 0)
(-2.34023e-06 -1.88257e-06 0)
(-1.27228e-06 -1.71739e-06 0)
(-2.9632e-07 -1.54678e-06 0)
(5.84833e-07 -1.37146e-06 0)
(1.36875e-06 -1.19215e-06 0)
(2.05361e-06 -1.00967e-06 0)
(2.63812e-06 -8.24924e-07 0)
(3.12158e-06 -6.39104e-07 0)
(3.504e-06 -4.53594e-07 0)
(3.78609e-06 -2.69858e-07 0)
(3.96927e-06 -8.9462e-08 0)
(4.056e-06 8.57595e-08 0)
(4.04988e-06 2.53589e-07 0)
(3.95569e-06 4.11482e-07 0)
(3.77957e-06 5.56544e-07 0)
(3.52928e-06 6.85438e-07 0)
(3.21416e-06 7.94358e-07 0)
(2.84534e-06 8.78948e-07 0)
(2.43612e-06 9.34216e-07 0)
(2.00211e-06 9.54592e-07 0)
(1.56117e-06 9.34088e-07 0)
(1.13339e-06 8.66741e-07 0)
(7.40219e-07 7.47687e-07 0)
(4.0376e-07 5.75091e-07 0)
(1.52617e-07 3.53967e-07 0)
(2.63815e-08 1.0742e-07 0)
(-4.6757e-09 3.26602e-07 0)
(1.24144e-07 -5.66969e-07 0)
(3.23419e-07 -1.08781e-06 0)
(6.68412e-07 -1.32957e-06 0)
(1.08808e-06 -1.43895e-06 0)
(1.54412e-06 -1.46108e-06 0)
(2.00324e-06 -1.41869e-06 0)
(2.43853e-06 -1.32452e-06 0)
(2.8308e-06 -1.18371e-06 0)
(3.15816e-06 -1.00731e-06 0)
(3.40756e-06 -7.98572e-07 0)
(3.56702e-06 -5.63336e-07 0)
(3.62422e-06 -3.08257e-07 0)
(3.57314e-06 -3.55525e-08 0)
(3.40707e-06 2.50155e-07 0)
(3.11939e-06 5.44557e-07 0)
(2.70874e-06 8.46044e-07 0)
(2.17218e-06 1.15122e-06 0)
(1.50808e-06 1.45689e-06 0)
(7.17543e-07 1.76162e-06 0)
(-1.99345e-07 2.06322e-06 0)
(-1.24132e-06 2.35969e-06 0)
(-2.4057e-06 2.64979e-06 0)
(-3.68978e-06 2.9321e-06 0)
(-5.09018e-06 3.20539e-06 0)
(-6.60292e-06 3.4684e-06 0)
(-8.22361e-06 3.72049e-06 0)
(-9.94752e-06 3.96062e-06 0)
(-1.17697e-05 4.18806e-06 0)
(-1.36846e-05 4.40266e-06 0)
(-1.5687e-05 4.60371e-06 0)
(-1.77713e-05 4.79067e-06 0)
(-1.99312e-05 4.96367e-06 0)
(-2.21609e-05 5.12231e-06 0)
(-2.44544e-05 5.26603e-06 0)
(-2.68054e-05 5.3951e-06 0)
(-2.92072e-05 5.50961e-06 0)
(-3.1654e-05 5.60914e-06 0)
(-3.41393e-05 5.69373e-06 0)
(-3.66568e-05 5.76368e-06 0)
(-3.92002e-05 5.81906e-06 0)
(-4.17635e-05 5.85996e-06 0)
(-4.43405e-05 5.88659e-06 0)
(-4.6925e-05 5.89912e-06 0)
(-4.95109e-05 5.89786e-06 0)
(-5.20922e-05 5.8831e-06 0)
(-5.46636e-05 5.85481e-06 0)
(-5.72193e-05 5.81331e-06 0)
(-5.97535e-05 5.75932e-06 0)
(-6.2261e-05 5.6931e-06 0)
(-6.47367e-05 5.6147e-06 0)
(-6.71755e-05 5.52458e-06 0)
(-6.95721e-05 5.42334e-06 0)
(-7.19217e-05 5.3113e-06 0)
(-7.422e-05 5.18865e-06 0)
(-7.64625e-05 5.0558e-06 0)
(-7.86447e-05 4.91332e-06 0)
(-8.07626e-05 4.76171e-06 0)
(-8.28122e-05 4.60131e-06 0)
(-8.47898e-05 4.43235e-06 0)
(-8.66919e-05 4.25513e-06 0)
(-8.8515e-05 4.07021e-06 0)
(-9.02558e-05 3.87829e-06 0)
(-9.19113e-05 3.67976e-06 0)
(-9.3479e-05 3.47484e-06 0)
(-9.49559e-05 3.26395e-06 0)
(-9.63393e-05 3.04768e-06 0)
(-9.76267e-05 2.82644e-06 0)
(-9.88165e-05 2.60042e-06 0)
(-9.99068e-05 2.37005e-06 0)
(-0.000100896 2.13598e-06 0)
(-0.000101781 1.89861e-06 0)
(-0.000102562 1.65815e-06 0)
(-0.000103237 1.41496e-06 0)
(-0.000103806 1.16952e-06 0)
(-0.000104267 9.22257e-07 0)
(-0.000104619 6.73613e-07 0)
(-0.000104862 4.24094e-07 0)
(-0.000104997 1.74079e-07 0)
(-0.000105022 -7.61776e-08 0)
(-0.000104937 -3.26278e-07 0)
(-0.000104743 -5.75658e-07 0)
(-0.00010444 -8.23866e-07 0)
(-0.000104029 -1.07062e-06 0)
(-0.000103511 -1.3156e-06 0)
(-0.000102885 -1.55833e-06 0)
(-0.000102154 -1.79829e-06 0)
(-0.000101318 -2.03513e-06 0)
(-0.00010038 -2.26856e-06 0)
(-9.93396e-05 -2.49822e-06 0)
(-9.81998e-05 -2.7237e-06 0)
(-9.69621e-05 -2.94456e-06 0)
(-9.56287e-05 -3.16036e-06 0)
(-9.42018e-05 -3.37069e-06 0)
(-9.2684e-05 -3.57517e-06 0)
(-9.10779e-05 -3.77353e-06 0)
(-8.93865e-05 -3.96539e-06 0)
(-8.76125e-05 -4.1502e-06 0)
(-8.57589e-05 -4.32749e-06 0)
(-8.38291e-05 -4.49691e-06 0)
(-8.18268e-05 -4.65821e-06 0)
(-7.97556e-05 -4.81106e-06 0)
(-7.76191e-05 -4.95496e-06 0)
(-7.54213e-05 -5.08946e-06 0)
(-7.31662e-05 -5.21423e-06 0)
(-7.08583e-05 -5.32892e-06 0)
(-6.85021e-05 -5.43318e-06 0)
(-6.61022e-05 -5.52662e-06 0)
(-6.36632e-05 -5.60892e-06 0)
(-6.11899e-05 -5.67977e-06 0)
(-5.86874e-05 -5.73883e-06 0)
(-5.61609e-05 -5.78577e-06 0)
(-5.36157e-05 -5.82035e-06 0)
(-5.10573e-05 -5.84231e-06 0)
(-4.84912e-05 -5.85137e-06 0)
(-4.59228e-05 -5.84719e-06 0)
(-4.33579e-05 -5.8295e-06 0)
(-4.08023e-05 -5.79819e-06 0)
(-3.82619e-05 -5.75318e-06 0)
(-3.57428e-05 -5.69432e-06 0)
(-3.32509e-05 -5.62141e-06 0)
(-3.0792e-05 -5.53431e-06 0)
(-2.83723e-05 -5.43298e-06 0)
(-2.5998e-05 -5.3175e-06 0)
(-2.36749e-05 -5.18795e-06 0)
(-2.14092e-05 -5.04438e-06 0)
(-1.92067e-05 -4.88686e-06 0)
(-1.70734e-05 -4.71555e-06 0)
(-1.50149e-05 -4.53063e-06 0)
(-1.30369e-05 -4.33241e-06 0)
(-1.11449e-05 -4.12132e-06 0)
(-9.34407e-06 -3.89789e-06 0)
(-7.63966e-06 -3.66268e-06 0)
(-6.03629e-06 -3.41627e-06 0)
(-4.53836e-06 -3.1593e-06 0)
(-3.15005e-06 -2.89256e-06 0)
(-1.87513e-06 -2.61709e-06 0)
(-7.16911e-07 -2.33414e-06 0)
(3.2187e-07 -2.04498e-06 0)
(1.23908e-06 -1.75098e-06 0)
(2.03319e-06 -1.45368e-06 0)
(2.70331e-06 -1.15486e-06 0)
(3.24948e-06 -8.56622e-07 0)
(3.67272e-06 -5.61381e-07 0)
(3.97498e-06 -2.71824e-07 0)
(4.1593e-06 9.06751e-09 0)
(4.23001e-06 2.77872e-07 0)
(4.19292e-06 5.30669e-07 0)
(4.05537e-06 7.63044e-07 0)
(3.82648e-06 9.69941e-07 0)
(3.51719e-06 1.14559e-06 0)
(3.14044e-06 1.28349e-06 0)
(2.71141e-06 1.37648e-06 0)
(2.24766e-06 1.41678e-06 0)
(1.76914e-06 1.39612e-06 0)
(1.29811e-06 1.30638e-06 0)
(8.58434e-07 1.14078e-06 0)
(4.75206e-07 8.9578e-07 0)
(1.82999e-07 5.74522e-07 0)
(3.25215e-08 1.95787e-07 0)
(2.58736e-08 2.03785e-07 0)
(1.90746e-07 -7.43957e-07 0)
(4.27057e-07 -1.3748e-06 0)
(7.80989e-07 -1.7084e-06 0)
(1.2038e-06 -1.87e-06 0)
(1.65532e-06 -1.91245e-06 0)
(2.10208e-06 -1.8613e-06 0)
(2.5192e-06 -1.72873e-06 0)
(2.87996e-06 -1.53211e-06 0)
(3.16604e-06 -1.27859e-06 0)
(3.36103e-06 -9.78048e-07 0)
(3.44867e-06 -6.40124e-07 0)
(3.41948e-06 -2.70421e-07 0)
(3.26362e-06 1.24455e-07 0)
(2.97262e-06 5.37296e-07 0)
(2.54233e-06 9.64597e-07 0)
(1.96798e-06 1.40164e-06 0)
(1.24662e-06 1.84353e-06 0)
(3.77383e-07 2.28766e-06 0)
(-6.39993e-07 2.73027e-06 0)
(-1.80477e-06 3.16828e-06 0)
(-3.1154e-06 3.59936e-06 0)
(-4.56914e-06 4.02119e-06 0)
(-6.16273e-06 4.43175e-06 0)
(-7.89248e-06 4.82932e-06 0)
(-9.75365e-06 5.21228e-06 0)
(-1.17413e-05 5.57947e-06 0)
(-1.38501e-05 5.92944e-06 0)
(-1.60739e-05 6.26137e-06 0)
(-1.84065e-05 6.57439e-06 0)
(-2.08418e-05 6.86752e-06 0)
(-2.33727e-05 7.14045e-06 0)
(-2.59924e-05 7.39277e-06 0)
(-2.8694e-05 7.62377e-06 0)
(-3.14703e-05 7.83336e-06 0)
(-3.43136e-05 8.02165e-06 0)
(-3.72167e-05 8.18832e-06 0)
(-4.01724e-05 8.33316e-06 0)
(-4.31729e-05 8.45634e-06 0)
(-4.62108e-05 8.55798e-06 0)
(-4.92788e-05 8.63814e-06 0)
(-5.23695e-05 8.69698e-06 0)
(-5.54757e-05 8.73476e-06 0)
(-5.859e-05 8.75195e-06 0)
(-6.17052e-05 8.74895e-06 0)
(-6.48146e-05 8.7259e-06 0)
(-6.79114e-05 8.68303e-06 0)
(-7.09885e-05 8.62102e-06 0)
(-7.40393e-05 8.54049e-06 0)
(-7.70577e-05 8.44165e-06 0)
(-8.00375e-05 8.32491e-06 0)
(-8.29724e-05 8.19114e-06 0)
(-8.58563e-05 8.04092e-06 0)
(-8.86838e-05 7.8746e-06 0)
(-9.14493e-05 7.69274e-06 0)
(-9.41475e-05 7.49594e-06 0)
(-9.6773e-05 7.2848e-06 0)
(-9.9321e-05 7.05998e-06 0)
(-0.000101787 6.82212e-06 0)
(-0.000104166 6.57174e-06 0)
(-0.000106455 6.30935e-06 0)
(-0.000108648 6.03573e-06 0)
(-0.000110743 5.75157e-06 0)
(-0.000112735 5.4573e-06 0)
(-0.000114621 5.15356e-06 0)
(-0.000116398 4.84122e-06 0)
(-0.000118063 4.52095e-06 0)
(-0.000119612 4.19312e-06 0)
(-0.000121045 3.85818e-06 0)
(-0.000122357 3.51686e-06 0)
(-0.000123547 3.16994e-06 0)
(-0.000124613 2.81801e-06 0)
(-0.000125554 2.4616e-06 0)
(-0.000126367 2.10126e-06 0)
(-0.000127052 1.7376e-06 0)
(-0.000127608 1.37124e-06 0)
(-0.000128033 1.00286e-06 0)
(-0.000128327 6.33101e-07 0)
(-0.00012849 2.62458e-07 0)
(-0.000128522 -1.08523e-07 0)
(-0.000128422 -4.79129e-07 0)
(-0.00012819 -8.4866e-07 0)
(-0.000127828 -1.21663e-06 0)
(-0.000127335 -1.58256e-06 0)
(-0.000126713 -1.94579e-06 0)
(-0.000125963 -2.30561e-06 0)
(-0.000125085 -2.66141e-06 0)
(-0.000124082 -3.01271e-06 0)
(-0.000122954 -3.35899e-06 0)
(-0.000121705 -3.69959e-06 0)
(-0.000120336 -4.03392e-06 0)
(-0.000118849 -4.36141e-06 0)
(-0.000117247 -4.68144e-06 0)
(-0.000115533 -4.99343e-06 0)
(-0.000113709 -5.29684e-06 0)
(-0.000111779 -5.59114e-06 0)
(-0.000109746 -5.87571e-06 0)
(-0.000107613 -6.14984e-06 0)
(-0.000105385 -6.41293e-06 0)
(-0.000103065 -6.66452e-06 0)
(-0.000100658 -6.90411e-06 0)
(-9.81677e-05 -7.13107e-06 0)
(-9.55985e-05 -7.34474e-06 0)
(-9.29554e-05 -7.54456e-06 0)
(-9.02432e-05 -7.73006e-06 0)
(-8.74672e-05 -7.90073e-06 0)
(-8.46328e-05 -8.05599e-06 0)
(-8.17453e-05 -8.19531e-06 0)
(-7.88105e-05 -8.31817e-06 0)
(-7.58341e-05 -8.4241e-06 0)
(-7.2822e-05 -8.51263e-06 0)
(-6.97805e-05 -8.58334e-06 0)
(-6.6716e-05 -8.63587e-06 0)
(-6.36349e-05 -8.66979e-06 0)
(-6.05436e-05 -8.68466e-06 0)
(-5.74489e-05 -8.68003e-06 0)
(-5.43574e-05 -8.6556e-06 0)
(-5.12763e-05 -8.61117e-06 0)
(-4.82125e-05 -8.54654e-06 0)
(-4.51731e-05 -8.46149e-06 0)
(-4.2165e-05 -8.35583e-06 0)
(-3.91954e-05 -8.22942e-06 0)
(-3.62715e-05 -8.08221e-06 0)
(-3.34005e-05 -7.91418e-06 0)
(-3.05897e-05 -7.72541e-06 0)
(-2.78459e-05 -7.51607e-06 0)
(-2.51763e-05 -7.2864e-06 0)
(-2.25877e-05 -7.03663e-06 0)
(-2.00868e-05 -6.76707e-06 0)
(-1.76802e-05 -6.47817e-06 0)
(-1.53746e-05 -6.17052e-06 0)
(-1.31761e-05 -5.84488e-06 0)
(-1.10906e-05 -5.50207e-06 0)
(-9.12351e-06 -5.143e-06 0)
(-7.27994e-06 -4.76875e-06 0)
(-5.56479e-06 -4.38058e-06 0)
(-3.98252e-06 -3.97993e-06 0)
(-2.53694e-06 -3.56845e-06 0)
(-1.23114e-06 -3.14805e-06 0)
(-6.74816e-08 -2.72083e-06 0)
(9.52332e-07 -2.28913e-06 0)
(1.82735e-06 -1.85559e-06 0)
(2.55763e-06 -1.42317e-06 0)
(3.14431e-06 -9.95251e-07 0)
(3.58971e-06 -5.75728e-07 0)
(3.89742e-06 -1.68964e-07 0)
(4.07244e-06 2.20188e-07 0)
(4.12136e-06 5.8628e-07 0)
(4.05246e-06 9.23174e-07 0)
(3.87591e-06 1.22393e-06 0)
(3.60375e-06 1.48076e-06 0)
(3.25021e-06 1.68499e-06 0)
(2.83195e-06 1.82713e-06 0)
(2.36792e-06 1.89705e-06 0)
(1.87952e-06 1.88415e-06 0)
(1.39069e-06 1.77789e-06 0)
(9.27429e-07 1.56894e-06 0)
(5.17632e-07 1.25083e-06 0)
(2.0089e-07 8.22767e-07 0)
(3.59782e-08 2.96851e-07 0)
(3.90443e-08 6.6155e-08 0)
(2.20757e-07 -9.57613e-07 0)
(4.79204e-07 -1.68533e-06 0)
(8.35947e-07 -2.09294e-06 0)
(1.24673e-06 -2.29659e-06 0)
(1.67464e-06 -2.34894e-06 0)
(2.09084e-06 -2.27474e-06 0)
(2.46242e-06 -2.0971e-06 0)
(2.76758e-06 -1.82925e-06 0)
(2.98605e-06 -1.48594e-06 0)
(3.09702e-06 -1.08053e-06 0)
(3.088e-06 -6.22917e-07 0)
(2.94553e-06 -1.22435e-07 0)
(2.65834e-06 4.10957e-07 0)
(2.21976e-06 9.70732e-07 0)
(1.62309e-06 1.54988e-06 0)
(8.6345e-07 2.14163e-06 0)
(-6.16647e-08 2.74108e-06 0)
(-1.15406e-06 3.34331e-06 0)
(-2.41405e-06 3.9438e-06 0)
(-3.84072e-06 4.53844e-06 0)
(-5.43232e-06 5.12396e-06 0)
(-7.18587e-06 5.69723e-06 0)
(-9.09783e-06 6.25528e-06 0)
(-1.11639e-05 6.79579e-06 0)
(-1.33788e-05 7.31676e-06 0)
(-1.5737e-05 7.81605e-06 0)
(-1.82325e-05 8.29235e-06 0)
(-2.08583e-05 8.74423e-06 0)
(-2.36078e-05 9.17021e-06 0)
(-2.64736e-05 9.56953e-06 0)
(-2.94477e-05 9.94146e-06 0)
(-3.25226e-05 1.0285e-05 0)
(-3.56905e-05 1.05996e-05 0)
(-3.89424e-05 1.08851e-05 0)
(-4.22704e-05 1.11413e-05 0)
(-4.56662e-05 1.13677e-05 0)
(-4.91211e-05 1.15644e-05 0)
(-5.26265e-05 1.17315e-05 0)
(-5.61739e-05 1.18691e-05 0)
(-5.9755e-05 1.19773e-05 0)
(-6.33613e-05 1.20563e-05 0)
(-6.69843e-05 1.21064e-05 0)
(-7.06155e-05 1.21282e-05 0)
(-7.4247e-05 1.21222e-05 0)
(-7.7871e-05 1.20884e-05 0)
(-8.14794e-05 1.20278e-05 0)
(-8.50642e-05 1.1941e-05 0)
(-8.86179e-05 1.18285e-05 0)
(-9.21335e-05 1.16907e-05 0)
(-9.56035e-05 1.15286e-05 0)
(-9.90207e-05 1.1343e-05 0)