/*--------------------------------*- C++ -*----------------------------------*\
  =========                 |
  \\      /  F ield         | OpenFOAM: The Open Source CFD Toolbox
   \\    /   O peration     | Website:  https://openfoam.org
    \\  /    A nd           | Version:  7
     \\/     M anipulation  |
\*---------------------------------------------------------------------------*/
FoamFile
{
    version     2.0;
    format      ascii;
    class       surfaceScalarField;
    location    "0.225";
    object      phi;
}
// * * * * * * * * * * * * * * * * * * * * * * * * * * * * * * * * * * * * * //

dimensions      [0 3 -1 0 0 0 0];

internalField   nonuniform List<scalar> 
101920
(
1.67495e-14
8.08035e-14
2.45872e-12
-2.44361e-12
3.24183e-12
-7.83153e-13
4.07213e-12
-8.26474e-13
4.70557e-12
-6.34732e-13
5.23637e-12
-5.31607e-13
5.71875e-12
-4.8368e-13
6.1694e-12
-4.51671e-13
6.58464e-12
-4.16052e-13
6.95549e-12
-3.71309e-13
7.26999e-12
-3.15119e-13
7.51595e-12
-2.47038e-13
7.6846e-12
-1.68836e-13
7.7646e-12
-8.2129e-14
7.7532e-12
1.20315e-14
7.64371e-12
1.08545e-13
7.43428e-12
2.09383e-13
7.12263e-12
3.12459e-13
6.70528e-12
4.16272e-13
6.1841e-12
5.22073e-13
5.55774e-12
6.25545e-13
4.82978e-12
7.27978e-13
4.00307e-12
8.2793e-13
3.07888e-12
9.23256e-13
2.06075e-12
1.0188e-12
9.50569e-13
1.10952e-12
-2.45631e-13
1.19548e-12
-1.52351e-12
1.27955e-12
-2.88105e-12
1.35799e-12
-4.3111e-12
1.43087e-12
-5.81002e-12
1.50055e-12
-7.37555e-12
1.56525e-12
-8.9989e-12
1.62466e-12
-1.06748e-11
1.67844e-12
-1.24006e-11
1.72659e-12
-1.41702e-11
1.7704e-12
-1.59789e-11
1.80848e-12
-1.78225e-11
1.841e-12
-1.96956e-11
1.87091e-12
-2.15932e-11
1.89612e-12
-2.35093e-11
1.91399e-12
-2.54381e-11
1.92785e-12
-2.73764e-11
1.93862e-12
-2.93209e-11
1.94355e-12
-3.12654e-11
1.94353e-12
-3.3205e-11
1.94005e-12
-3.51371e-11
1.93193e-12
-3.70562e-11
1.91879e-12
-3.89554e-11
1.90104e-12
-4.08319e-11
1.87859e-12
-4.26829e-11
1.85205e-12
-4.45038e-11
1.82225e-12
-4.62915e-11
1.78827e-12
-4.80425e-11
1.75018e-12
-4.97525e-11
1.70958e-12
-5.14188e-11
1.66635e-12
-5.30382e-11
1.61865e-12
-5.46071e-11
1.56699e-12
-5.61224e-11
1.51381e-12
-5.75821e-11
1.45915e-12
-5.89835e-11
1.4012e-12
-6.03221e-11
1.33964e-12
-6.15953e-11
1.27532e-12
-6.28028e-11
1.20866e-12
-6.39431e-11
1.13997e-12
-6.50133e-11
1.06987e-12
-6.60121e-11
9.98367e-13
-6.69386e-11
9.2513e-13
-6.77912e-11
8.5073e-13
-6.85677e-11
7.75576e-13
-6.92663e-11
6.98826e-13
-6.9886e-11
6.2048e-13
-7.04259e-11
5.41849e-13
-7.08858e-11
4.62841e-13
-7.12662e-11
3.81867e-13
-7.15655e-11
2.98801e-13
-7.17819e-11
2.15485e-13
-7.19157e-11
1.33124e-13
-7.19686e-11
5.12876e-14
-7.19401e-11
-3.04226e-14
-7.18285e-11
-1.11834e-13
-7.16342e-11
-1.93159e-13
-7.13587e-11
-2.74768e-13
-7.10028e-11
-3.56219e-13
-7.05669e-11
-4.36605e-13
-7.00513e-11
-5.15869e-13
-6.9457e-11
-5.94477e-13
-6.87849e-11
-6.72044e-13
-6.80363e-11
-7.47916e-13
-6.7213e-11
-8.22445e-13
-6.63164e-11
-8.96404e-13
-6.53473e-11
-9.69491e-13
-6.43073e-11
-1.04045e-12
-6.31991e-11
-1.10875e-12
-6.20252e-11
-1.17489e-12
-6.07864e-11
-1.23943e-12
-5.94833e-11
-1.30237e-12
-5.81187e-11
-1.36315e-12
-5.66964e-11
-1.42133e-12
-5.52199e-11
-1.4766e-12
-5.36914e-11
-1.52875e-12
-5.2113e-11
-1.57822e-12
-5.04881e-11
-1.62531e-12
-4.88199e-11
-1.66934e-12
-4.71114e-11
-1.70937e-12
-4.53662e-11
-1.74521e-12
-4.35875e-11
-1.77785e-12
-4.17787e-11
-1.8081e-12
-3.99435e-11
-1.83522e-12
-3.80857e-11
-1.85811e-12
-3.621e-11
-1.87646e-12
-3.43209e-11
-1.89047e-12
-3.24211e-11
-1.90055e-12
-3.05143e-11
-1.90671e-12
-2.86051e-11
-1.90846e-12
-2.66984e-11
-1.90572e-12
-2.47999e-11
-1.8984e-12
-2.29139e-11
-1.88611e-12
-2.10442e-11
-1.86915e-12
-1.91958e-11
-1.84803e-12
-1.73735e-11
-1.82257e-12
-1.5582e-11
-1.79218e-12
-1.38264e-11
-1.75615e-12
-1.21112e-11
-1.71446e-12
-1.04409e-11
-1.66842e-12
-8.8209e-12
-1.6189e-12
-7.25595e-12
-1.56519e-12
-5.75072e-12
-1.50623e-12
-4.31031e-12
-1.44149e-12
-2.93927e-12
-1.37134e-12
-1.64193e-12
-1.29674e-12
-4.22985e-13
-1.21824e-12
7.13356e-13
-1.13582e-12
1.76311e-12
-1.04965e-12
2.72206e-12
-9.59807e-13
3.58656e-12
-8.65861e-13
4.35359e-12
-7.67774e-13
5.0201e-12
-6.6636e-13
5.58375e-12
-5.62878e-13
6.04296e-12
-4.5851e-13
6.39585e-12
-3.53406e-13
6.64098e-12
-2.46653e-13
6.77827e-12
-1.38185e-13
6.80832e-12
-2.97337e-14
6.7326e-12
7.65887e-14
6.55412e-12
1.79311e-13
6.27645e-12
2.77662e-13
5.90419e-12
3.71184e-13
5.44481e-12
4.58511e-13
4.90804e-12
5.36829e-13
4.30571e-12
6.0292e-13
3.6527e-12
6.53706e-13
2.96755e-12
6.85589e-13
2.2734e-12
6.93873e-13
1.5999e-12
6.72736e-13
9.84724e-13
6.14998e-13
4.73003e-13
5.12414e-13
1.15785e-13
3.57841e-13
-3.83804e-14
1.54348e-13
-3.83952e-14
-2.12669e-12
2.2061e-12
-1.5644e-12
-3.00323e-12
6.06647e-13
-2.95794e-12
2.60143e-12
-2.82004e-12
4.59202e-12
-2.62544e-12
6.50705e-12
-2.44525e-12
8.30234e-12
-2.27772e-12
9.94783e-12
-2.09724e-12
1.14212e-11
-1.88876e-12
1.26967e-11
-1.64566e-12
1.37488e-11
-1.36719e-12
1.45593e-11
-1.05576e-12
1.51051e-11
-7.15837e-13
1.53762e-11
-3.50522e-13
1.53573e-11
3.00258e-14
1.50396e-11
4.26026e-13
1.4419e-11
8.30225e-13
1.34907e-11
1.23849e-12
1.22566e-11
1.65218e-12
1.07168e-11
2.06111e-12
8.87514e-12
2.46687e-12
6.73649e-12
2.8672e-12
4.30629e-12
3.25503e-12
1.59598e-12
3.63498e-12
-1.38821e-12
4.00297e-12
-4.63471e-12
4.35439e-12
-8.13069e-12
4.69251e-12
-1.18683e-11
5.01395e-12
-1.58303e-11
5.31772e-12
-2.00033e-11
5.60466e-12
-2.43782e-11
5.87287e-12
-2.89374e-11
6.1225e-12
-3.36667e-11
6.35294e-12
-3.85556e-11
6.56322e-12
-4.35864e-11
6.75591e-12
-4.87434e-11
6.92951e-12
-5.40155e-11
7.08148e-12
-5.93866e-11
7.21484e-12
-6.48413e-11
7.3297e-12
-7.03676e-11
7.42266e-12
-7.59491e-11
7.49563e-12
-8.15714e-11
7.55144e-12
-8.72224e-11
7.58867e-12
-9.28861e-11
7.60694e-12
-9.85488e-11
7.60781e-12
-1.04199e-10
7.59056e-12
-1.09824e-10
7.55478e-12
-1.15408e-10
7.50191e-12
-1.20941e-10
7.43168e-12
-1.26412e-10
7.34527e-12
-1.31806e-10
7.24513e-12
-1.37113e-10
7.13e-12
-1.42323e-10
6.99835e-12
-1.47426e-10
6.85272e-12
-1.52411e-10
6.6951e-12
-1.57268e-10
6.5242e-12
-1.61988e-10
6.33963e-12
-1.66561e-10
6.14302e-12
-1.7098e-10
5.93503e-12
-1.75237e-10
5.71526e-12
-1.79323e-10
5.48468e-12
-1.8323e-10
5.24475e-12
-1.86951e-10
4.99569e-12
-1.90483e-10
4.73808e-12
-1.93816e-10
4.4732e-12
-1.96945e-10
4.20112e-12
-1.99867e-10
3.92162e-12
-2.02577e-10
3.63565e-12
-2.05068e-10
3.34407e-12
-2.07337e-10
3.04631e-12
-2.09383e-10
2.74232e-12
-2.11201e-10
2.43453e-12
-2.12786e-10
2.1252e-12
-2.14137e-10
1.81337e-12
-2.15253e-10
1.49738e-12
-2.16131e-10
1.17802e-12
-2.16769e-10
8.56939e-13
-2.17168e-10
5.34554e-13
-2.17328e-10
2.11129e-13
-2.17246e-10
-1.12238e-13
-2.16924e-10
-4.34716e-13
-2.16364e-10
-7.56108e-13
-2.15565e-10
-1.07581e-12
-2.14528e-10
-1.39323e-12
-2.13256e-10
-1.70852e-12
-2.11751e-10
-2.02151e-12
-2.10016e-10
-2.33093e-12
-2.08053e-10
-2.63526e-12
-2.05866e-10
-2.93432e-12
-2.0346e-10
-3.2289e-12
-2.00837e-10
-3.51888e-12
-1.98003e-10
-3.80304e-12
-1.94961e-10
-4.08048e-12
-1.91717e-10
-4.35117e-12
-1.88278e-10
-4.61489e-12
-1.84648e-10
-4.87064e-12
-1.80834e-10
-5.11762e-12
-1.76842e-10
-5.35542e-12
-1.72681e-10
-5.58326e-12
-1.68358e-10
-5.80019e-12
-1.6388e-10
-6.00588e-12
-1.59256e-10
-6.20088e-12
-1.54495e-10
-6.3855e-12
-1.49605e-10
-6.55856e-12
-1.44596e-10
-6.71852e-12
-1.39478e-10
-6.86478e-12
-1.34261e-10
-6.99727e-12
-1.28956e-10
-7.11578e-12
-1.23572e-10
-7.21959e-12
-1.18121e-10
-7.30815e-12
-1.12614e-10
-7.3817e-12
-1.07065e-10
-7.44008e-12
-1.01483e-10
-7.48237e-12
-9.58816e-11
-7.50805e-12
-9.02734e-11
-7.51674e-12
-8.46714e-11
-7.508e-12
-7.90887e-11
-7.48147e-12
-7.35388e-11
-7.43648e-12
-6.80347e-11
-7.37285e-12
-6.25902e-11
-7.29137e-12
-5.72193e-11
-7.19226e-12
-5.1935e-11
-7.0749e-12
-4.67516e-11
-6.93875e-12
-4.16839e-11
-6.78329e-12
-3.67454e-11
-6.60851e-12
-3.19492e-11
-6.41527e-12
-2.73089e-11
-6.204e-12
-2.28385e-11
-5.97465e-12
-1.85525e-11
-5.72724e-12
-1.4464e-11
-5.46155e-12
-1.05849e-11
-5.17753e-12
-6.92739e-12
-4.87614e-12
-3.50396e-12
-4.55876e-12
-3.26355e-13
-4.22652e-12
2.59486e-12
-3.88048e-12
5.25006e-12
-3.52128e-12
7.63046e-12
-3.14927e-12
9.72773e-12
-2.76566e-12
1.1535e-11
-2.37246e-12
1.30481e-11
-1.97193e-12
1.42636e-11
-1.56677e-12
1.51789e-11
-1.15959e-12
1.5793e-11
-7.52256e-13
1.61084e-11
-3.47121e-13
1.61307e-11
5.20409e-14
1.58692e-11
4.40527e-13
1.53356e-11
8.13019e-13
1.45447e-11
1.16364e-12
1.35169e-11
1.48612e-12
1.22792e-11
1.77333e-12
1.08653e-11
2.01628e-12
9.31606e-12
2.20355e-12
7.68094e-12
2.3219e-12
6.01949e-12
2.35619e-12
4.40317e-12
2.28899e-12
2.91574e-12
2.10179e-12
1.65045e-12
1.77769e-12
7.01353e-13
1.3076e-12
1.4621e-13
7.09887e-13
1.07969e-13
-7.52007e-14
2.28127e-12
-3.29981e-13
-2.75225e-12
1.11288e-12
-4.40302e-12
3.18461e-12
-4.89026e-12
5.56261e-12
-5.00657e-12
8.04518e-12
-4.92943e-12
1.04812e-11
-4.71477e-12
1.27671e-11
-4.38379e-12
1.48238e-11
-3.94544e-12
1.65867e-11
-3.41093e-12
1.80107e-11
-2.79049e-12
1.9051e-11
-2.09878e-12
1.96797e-11
-1.34331e-12
1.98681e-11
-5.40577e-13
1.95987e-11
2.99466e-13
1.88577e-11
1.16846e-12
1.76326e-11
2.05306e-12
1.59223e-11
2.95041e-12
1.37228e-11
3.8505e-12
1.10377e-11
4.74598e-12
7.87403e-12
5.63268e-12
4.23681e-12
6.50266e-12
1.38428e-13
7.35396e-12
-4.40927e-12
8.18232e-12
-9.39067e-12
8.98324e-12
-1.47891e-11
9.75575e-12
-2.05888e-11
1.04932e-11
-2.677e-11
1.11954e-11
-3.3312e-11
1.18618e-11
-4.01961e-11
1.24887e-11
-4.73983e-11
1.30764e-11
-5.48957e-11
1.36236e-11
-6.26693e-11
1.41272e-11
-7.06949e-11
1.45886e-11
-7.89482e-11
1.50087e-11
-8.74075e-11
1.53853e-11
-9.60487e-11
1.57196e-11
-1.04847e-10
1.60125e-11
-1.13781e-10
1.62615e-11
-1.22826e-10
1.64665e-11
-1.31959e-10
1.66294e-11
-1.41159e-10
1.67501e-11
-1.50402e-10
1.68295e-11
-1.59664e-10
1.68693e-11
-1.68925e-10
1.68691e-11
-1.78164e-10
1.68293e-11
-1.87358e-10
1.6751e-11
-1.96487e-10
1.6634e-11
-2.05533e-10
1.64787e-11
-2.14476e-10
1.62883e-11
-2.23295e-10
1.60649e-11
-2.31973e-10
1.58076e-11
-2.40493e-10
1.55171e-11
-2.48836e-10
1.51962e-11
-2.56987e-10
1.48453e-11
-2.6493e-10
1.44646e-11
-2.72649e-10
1.40568e-11
-2.80129e-10
1.36233e-11
-2.87358e-10
1.3164e-11
-2.94321e-10
1.26793e-11
-3.01005e-10
1.2171e-11
-3.07399e-10
1.16402e-11
-3.13493e-10
1.10886e-11
-3.19274e-10
1.05185e-11
-3.24733e-10
9.93143e-12
-3.29861e-10
9.32747e-12
-3.3465e-10
8.70796e-12
-3.3909e-10
8.07525e-12
-3.43174e-10
7.42972e-12
-3.46897e-10
6.77066e-12
-3.50252e-10
6.0994e-12
-3.53233e-10
5.4187e-12
-3.55837e-10
4.73023e-12
-3.58059e-10
4.03434e-12
-3.59895e-10
3.33177e-12
-3.61342e-10
2.62405e-12
-3.62399e-10
1.91252e-12
-3.63065e-10
1.19841e-12
-3.63337e-10
4.83052e-13
-3.63215e-10
-2.32774e-13
-3.627e-10
-9.48529e-13
-3.61795e-10
-1.66272e-12
-3.60499e-10
-2.37296e-12
-3.58814e-10
-3.07798e-12
-3.56744e-10
-3.77798e-12
-3.54294e-10
-4.47232e-12
-3.51466e-10
-5.15876e-12
-3.48265e-10
-5.83547e-12
-3.44697e-10
-6.50197e-12
-3.40768e-10
-7.15819e-12
-3.36486e-10
-7.80283e-12
-3.31855e-10
-8.4339e-12
-3.26886e-10
-9.05012e-12
-3.21587e-10
-9.65087e-12
-3.15965e-10
-1.02354e-11
-3.10031e-10
-1.08025e-11
-3.03797e-10
-1.1351e-11
-2.97273e-10
-1.18795e-11
-2.9047e-10
-1.23863e-11
-2.83401e-10
-1.28697e-11
-2.76078e-10
-1.33293e-11
-2.68516e-10
-1.37646e-11
-2.60728e-10
-1.41747e-11
-2.52728e-10
-1.4558e-11
-2.44532e-10
-1.49132e-11
-2.36156e-10
-1.52398e-11
-2.27618e-10
-1.55368e-11
-2.18932e-10
-1.58024e-11
-2.10118e-10
-1.60354e-11
-2.01192e-10
-1.62349e-11
-1.92174e-10
-1.64004e-11
-1.83083e-10
-1.65316e-11
-1.73937e-10
-1.66273e-11
-1.64757e-10
-1.66867e-11
-1.55565e-10
-1.6709e-11
-1.4638e-10
-1.6693e-11
-1.37223e-10
-1.66378e-11
-1.28116e-10
-1.65429e-11
-1.19082e-10
-1.6408e-11
-1.10141e-10
-1.62329e-11
-1.01316e-10
-1.60173e-11
-9.26289e-11
-1.57607e-11
-8.41017e-11
-1.54633e-11
-7.57582e-11
-1.51255e-11
-6.76212e-11
-1.47465e-11
-5.97121e-11
-1.43259e-11
-5.20522e-11
-1.38643e-11
-4.46636e-11
-1.33624e-11
-3.75684e-11
-1.28213e-11
-3.07876e-11
-1.22416e-11
-2.43414e-11
-1.16238e-11
-1.82491e-11
-1.09688e-11
-1.25299e-11
-1.02789e-11
-7.20185e-12
-9.55603e-12
-2.28137e-12
-8.80181e-12
2.21688e-12
-8.01867e-12
6.27883e-12
-7.20966e-12
9.89156e-12
-6.37791e-12
1.30448e-11
-5.52688e-12
1.57311e-11
-4.66025e-12
1.7946e-11
-3.78242e-12
1.96872e-11
-2.89944e-12
2.09549e-11
-2.01813e-12
2.17531e-11
-1.14495e-12
2.20908e-11
-2.86788e-13
2.19828e-11
5.47546e-13
2.14485e-11
1.34718e-12
2.05131e-11
2.09967e-12
1.92097e-11
2.79079e-12
1.75793e-11
3.40458e-12
1.56723e-11
3.92317e-12
1.35503e-11
4.32524e-12
1.12867e-11
4.5855e-12
8.96748e-12
4.67565e-12
6.69202e-12
4.56511e-12
4.57212e-12
4.22272e-12
2.72798e-12
3.62254e-12
1.28097e-12
2.75473e-12
3.42197e-13
1.64874e-12
4.50405e-13
1.85845e-13
2.09925e-12
6.9881e-13
-3.26422e-12
2.26099e-12
-5.96378e-12
4.47921e-12
-7.10957e-12
7.06635e-12
-7.59256e-12
9.80272e-12
-7.66734e-12
1.25171e-11
-7.42988e-12
1.50704e-11
-6.93476e-12
1.7344e-11
-6.22081e-12
1.92541e-11
-5.31977e-12
2.07251e-11
-4.26331e-12
2.1702e-11
-3.07471e-12
2.21371e-11
-1.77911e-12
2.19943e-11
-3.99117e-13
2.12465e-11
1.04826e-12
1.98714e-11
2.54131e-12
1.78592e-11
4.06681e-12
1.5199e-11
5.60984e-12
1.189e-11
7.15841e-12
7.93586e-12
8.70165e-12
3.33913e-12
1.02275e-11
-1.88612e-12
1.17293e-11
-7.72823e-12
1.31964e-11
-1.41713e-11
1.46228e-11
-2.11929e-11
1.60054e-11
-2.87744e-11
1.73358e-11
-3.68923e-11
1.86097e-11
-4.55199e-11
1.98247e-11
-5.46343e-11
2.09748e-11
-6.42067e-11
2.2059e-11
-7.42062e-11
2.30766e-11
-8.46059e-11
2.40223e-11
-9.53744e-11
2.48958e-11
-1.0648e-10
2.56969e-11
-1.17893e-10
2.64227e-11
-1.29582e-10
2.70739e-11
-1.41513e-10
2.76522e-11
-1.53657e-10
2.81558e-11
-1.65981e-10
2.85843e-11
-1.78453e-10
2.89391e-11
-1.91044e-10
2.92199e-11
-2.03722e-10
2.94267e-11
-2.16454e-10
2.95621e-11
-2.29211e-10
2.96266e-11
-2.41965e-10
2.9621e-11
-2.54685e-10
2.9548e-11
-2.67343e-10
2.94081e-11
-2.79911e-10
2.92011e-11
-2.92363e-10
2.893e-11
-3.0467e-10
2.85973e-11
-3.16809e-10
2.82035e-11
-3.28753e-10
2.77507e-11
-3.40477e-10
2.72422e-11
-3.51959e-10
2.66797e-11
-3.63177e-10
2.60637e-11
-3.74108e-10
2.53961e-11
-3.84731e-10
2.46803e-11
-3.95027e-10
2.39182e-11
-4.04977e-10
2.31115e-11
-4.14561e-10
2.22625e-11
-4.23762e-10
2.13727e-11
-4.32566e-10
2.04438e-11
-4.40956e-10
1.9479e-11
-4.48917e-10
1.84808e-11
-4.56436e-10
1.74508e-11
-4.63499e-10
1.63905e-11
-4.70094e-10
1.53033e-11
-4.76211e-10
1.4192e-11
-4.81841e-10
1.30573e-11
-4.86973e-10
1.19005e-11
-4.91598e-10
1.07246e-11
-4.9571e-10
9.5318e-12
-4.99302e-10
8.3235e-12
-5.02369e-10
7.1017e-12
-5.04905e-10
5.86887e-12
-5.06906e-10
4.62675e-12
-5.08372e-10
3.37718e-12
-5.09299e-10
2.12312e-12
-5.09684e-10
8.67256e-13
-5.09527e-10
-3.89302e-13
-5.08831e-10
-1.64541e-12
-5.07595e-10
-2.89846e-12
-5.05823e-10
-4.14552e-12
-5.03517e-10
-5.38478e-12
-5.00681e-10
-6.61506e-12
-4.97319e-10
-7.83417e-12
-4.93438e-10
-9.03923e-12
-4.89045e-10
-1.02284e-11
-4.84147e-10
-1.14005e-11
-4.78751e-10
-1.25539e-11
-4.72867e-10
-1.36864e-11
-4.66504e-10
-1.47957e-11
-4.59676e-10
-1.58795e-11
-4.52393e-10
-1.69358e-11
-4.44666e-10
-1.79626e-11
-4.36509e-10
-1.89584e-11
-4.27938e-10
-1.99217e-11
-4.18967e-10
-2.08498e-11
-4.09613e-10
-2.17401e-11
-3.99891e-10
-2.25905e-11
-3.8982e-10
-2.34002e-11
-3.79418e-10
-2.41677e-11
-3.68704e-10
-2.48901e-11
-3.57698e-10
-2.55649e-11
-3.46422e-10
-2.61903e-11
-3.34897e-10
-2.67653e-11
-3.23146e-10
-2.72883e-11
-3.1119e-10
-2.77571e-11
-2.99056e-10
-2.81697e-11
-2.86767e-10
-2.85244e-11
-2.74349e-10
-2.88195e-11
-2.61827e-10
-2.90535e-11
-2.49229e-10
-2.92255e-11
-2.36581e-10
-2.93341e-11
-2.23912e-10
-2.9378e-11
-2.11251e-10
-2.93551e-11
-1.98624e-10
-2.92639e-11
-1.86062e-10
-2.91039e-11
-1.73594e-10
-2.88751e-11
-1.6125e-10
-2.85765e-11
-1.49061e-10
-2.8207e-11
-1.37057e-10
-2.77656e-11
-1.25267e-10
-2.72526e-11
-1.13723e-10
-2.66687e-11
-1.02454e-10
-2.60142e-11
-9.14907e-11
-2.52886e-11
-8.0863e-11
-2.4492e-11
-7.06004e-11
-2.36255e-11
-6.07317e-11
-2.26905e-11
-5.12845e-11
-2.16885e-11
-4.22858e-11
-2.06215e-11
-3.37625e-11
-1.94917e-11
-2.57395e-11
-1.83021e-11
-1.82404e-11
-1.70558e-11
-1.12877e-11
-1.57559e-11
-4.90081e-12
-1.44062e-11
9.02331e-13
-1.3012e-11
6.10548e-12
-1.15799e-11
1.06956e-11
-1.0116e-11
1.4663e-11
-8.62724e-12
1.80007e-11
-7.12104e-12
2.07063e-11
-5.60644e-12
2.27826e-11
-4.09447e-12
2.42364e-11
-2.59768e-12
2.50799e-11
-1.12933e-12
2.5332e-11
2.95906e-13
2.50188e-11
1.66045e-12
2.41739e-11
2.94399e-12
2.28411e-11
4.12367e-12
2.1074e-11
5.17305e-12
1.89364e-11
6.06205e-12
1.65047e-11
6.75706e-12
1.38696e-11
7.22034e-12
1.11353e-11
7.40991e-12
8.41978e-12
7.28102e-12
5.85374e-12
6.78967e-12
3.57807e-12
5.89924e-12
1.74006e-12
4.59296e-12
4.92142e-13
2.89664e-12
9.42817e-13
5.66035e-13
1.53207e-12
1.48167e-12
-4.17991e-12
3.22213e-12
-7.70741e-12
5.57347e-12
-9.45974e-12
8.27258e-12
-1.02925e-11
1.11047e-11
-1.04991e-11
1.38879e-11
-1.02132e-11
1.64655e-11
-9.51381e-12
1.87114e-11
-8.46546e-12
2.05146e-11
-7.12551e-12
2.17914e-11
-5.53913e-12
2.24681e-11
-3.75192e-12
2.24895e-11
-1.80082e-12
2.18094e-11
2.82542e-13
2.03911e-11
2.46443e-12
1.82119e-11
4.72133e-12
1.5251e-11
7.02742e-12
1.14996e-11
9.3608e-12
6.95574e-12
1.17039e-11
1.61807e-12
1.40377e-11
-4.50395e-12
1.63491e-11
-1.13976e-11
1.86238e-11
-1.90501e-11
2.08479e-11
-2.74386e-11
2.3013e-11
-3.65413e-11
2.5109e-11
-4.63335e-11
2.71266e-11
-5.67846e-11
2.9062e-11
-6.78652e-11
3.09061e-11
-7.95443e-11
3.26536e-11
-9.1786e-11
3.43024e-11
-1.04557e-10
3.58468e-11
-1.1782e-10
3.7284e-11
-1.31538e-10
3.86134e-11
-1.45673e-10
3.98312e-11
-1.60187e-10
4.09352e-11
-1.75039e-10
4.19269e-11
-1.90192e-10
4.28049e-11
-2.05605e-10
4.35679e-11
-2.21238e-10
4.42176e-11
-2.37053e-10
4.47542e-11
-2.53012e-10
4.51776e-11
-2.69075e-10
4.54896e-11
-2.85204e-10
4.56915e-11
-3.01361e-10
4.57841e-11
-3.1751e-10
4.577e-11
-3.33612e-10
4.56515e-11
-3.49634e-10
4.54292e-11
-3.6554e-10
4.5106e-11
-3.81296e-10
4.46859e-11
-3.96868e-10
4.41702e-11
-4.12226e-10
4.35601e-11
-4.27336e-10
4.28604e-11
-4.42168e-10
4.20744e-11
-4.56694e-10
4.12043e-11
-4.70884e-10
4.0253e-11
-4.8471e-10
3.92237e-11
-4.98147e-10
3.81191e-11
-5.11172e-10
3.69423e-11
-5.23757e-10
3.5697e-11
-5.35881e-10
3.43863e-11
-5.47522e-10
3.30127e-11
-5.58659e-10
3.15801e-11
-5.69273e-10
3.00927e-11
-5.79345e-10
2.85531e-11
-5.88859e-10
2.69636e-11
-5.97797e-10
2.53285e-11
-6.06144e-10
2.36516e-11
-6.13886e-10
2.19356e-11
-6.21011e-10
2.01825e-11
-6.27508e-10
1.83963e-11
-6.33364e-10
1.65811e-11
-6.38573e-10
1.47394e-11
-6.43124e-10
1.28738e-11
-6.47011e-10
1.09878e-11
-6.50226e-10
9.08502e-12
-6.52768e-10
7.16787e-12
-6.5463e-10
5.23959e-12
-6.55811e-10
3.30402e-12
-6.56308e-10
1.3643e-12
-6.56121e-10
-5.76956e-13
-6.55251e-10
-2.51638e-12
-6.53699e-10
-4.45021e-12
-6.51468e-10
-6.37573e-12
-6.48563e-10
-8.29052e-12
-6.44988e-10
-1.01913e-11
-6.40748e-10
-1.20741e-11
-6.35851e-10
-1.39357e-11
-6.30307e-10
-1.57736e-11
-6.24124e-10
-1.75853e-11
-6.17311e-10
-1.93672e-11
-6.0988e-10
-2.11162e-11
-6.01845e-10
-2.28297e-11
-5.9322e-10
-2.45044e-11
-5.84019e-10
-2.6137e-11
-5.74257e-10
-2.77242e-11
-5.63952e-10
-2.92636e-11
-5.53121e-10
-3.07523e-11
-5.41785e-10
-3.21864e-11
-5.29963e-10
-3.35625e-11
-5.17675e-10
-3.48779e-11
-5.04946e-10
-3.61306e-11
-4.91796e-10
-3.73176e-11
-4.7825e-10
-3.84352e-11
-4.64335e-10
-3.94802e-11
-4.50077e-10
-4.04499e-11
-4.35502e-10
-4.13415e-11
-4.20639e-10
-4.21522e-11
-4.05516e-10
-4.28794e-11
-3.90165e-10
-4.35207e-11
-3.74616e-10
-4.40734e-11
-3.58901e-10
-4.45348e-11
-3.43052e-10
-4.49024e-11
-3.27103e-10
-4.51744e-11
-3.11088e-10
-4.5349e-11
-2.95043e-10
-4.54239e-11
-2.79002e-10
-4.53965e-11
-2.63e-10
-4.5265e-11
-2.47076e-10
-4.50281e-11
-2.31265e-10
-4.46854e-11
-2.15605e-10
-4.42359e-11
-2.00133e-10
-4.3678e-11
-1.84888e-10
-4.30109e-11
-1.69907e-10
-4.22342e-11
-1.55228e-10
-4.13481e-11
-1.40888e-10
-4.03533e-11
-1.26924e-10
-3.92507e-11
-1.13374e-10
-3.80408e-11
-1.00275e-10
-3.67249e-11
-8.76613e-11
-3.53047e-11
-7.55678e-11
-3.37825e-11
-6.40277e-11
-3.21616e-11
-5.30738e-11
-3.04458e-11
-4.27366e-11
-2.86395e-11
-3.30445e-11
-2.67473e-11
-2.40249e-11
-2.47749e-11
-1.57027e-11
-2.27286e-11
-8.09955e-12
-2.06158e-11
-1.23408e-12
-1.84456e-11
4.87868e-12
-1.62282e-11
1.02272e-11
-1.39744e-11
1.48033e-11
-1.16964e-11
1.86038e-11
-9.408e-12
2.16326e-11
-7.12478e-12
2.38996e-11
-4.86472e-12
2.54205e-11
-2.64878e-12
2.62178e-11
-5.00047e-13
2.63231e-11
1.55591e-12
2.57771e-11
3.48991e-12
2.46314e-11
5.2689e-12
2.29494e-11
6.85541e-12
2.08054e-11
8.20694e-12
1.82874e-11
9.2759e-12
1.54976e-11
1.00104e-11
1.25531e-11
1.03546e-11
9.5851e-12
1.02496e-11
6.73868e-12
9.63681e-12
4.1727e-12
8.46586e-12
2.06032e-12
6.70553e-12
5.93756e-13
4.36334e-12
1.53689e-12
7.66488e-13
7.64677e-13
1.97201e-12
-5.384e-12
3.85387e-12
-9.59103e-12
6.2679e-12
-1.18752e-11
8.97775e-12
-1.30018e-11
1.17688e-11
-1.32905e-11
1.44554e-11
-1.29004e-11
1.68784e-11
-1.19355e-11
1.88967e-11
-1.0486e-11
2.03968e-11
-8.62483e-12
2.12786e-11
-6.42148e-12
2.14619e-11
-3.93635e-12
2.08827e-11
-1.22032e-12
1.94856e-11
1.67782e-12
1.72335e-11
4.71724e-12
1.40931e-11
7.86091e-12
1.00437e-11
1.10755e-11
5.07516e-12
1.43307e-11
-8.20789e-13
1.75994e-11
-7.64088e-12
2.0858e-11
-1.53762e-11
2.4085e-11
-2.40157e-11
2.7261e-11
-3.35384e-11
3.03711e-11
-4.39235e-11
3.33986e-11
-5.51449e-11
3.63295e-11
-6.71716e-11
3.91545e-11
-7.99726e-11
4.18623e-11
-9.35119e-11
4.44439e-11
-1.07751e-10
4.68935e-11
-1.2265e-10
4.92029e-11
-1.3817e-10
5.13664e-11
-1.54266e-10
5.33813e-11
-1.70896e-10
5.52431e-11
-1.88014e-10
5.69481e-11
-2.05574e-10
5.8496e-11
-2.23533e-10
5.9885e-11
-2.41842e-10
6.11129e-11
-2.60454e-10
6.21805e-11
-2.79324e-10
6.30878e-11
-2.98405e-10
6.38347e-11
-3.17652e-10
6.44229e-11
-3.37016e-10
6.4854e-11
-3.56455e-10
6.51291e-11
-3.75923e-10
6.52512e-11
-3.95375e-10
6.52228e-11
-4.14769e-10
6.50454e-11
-4.34062e-10
6.47217e-11
-4.53212e-10
6.42565e-11
-4.72179e-10
6.36531e-11
-4.90923e-10
6.29139e-11
-5.09406e-10
6.20428e-11
-5.27589e-10
6.1045e-11
-5.45438e-10
5.99235e-11
-5.62917e-10
5.86819e-11
-5.7999e-10
5.73259e-11
-5.96626e-10
5.58596e-11
-6.12794e-10
5.42866e-11
-6.28464e-10
5.26117e-11
-6.43605e-10
5.08393e-11
-6.58192e-10
4.89734e-11
-6.72198e-10
4.70185e-11
-6.85599e-10
4.49804e-11
-6.98369e-10
4.28636e-11
-7.10488e-10
4.06717e-11
-7.21935e-10
3.84096e-11
-7.3269e-10
3.60832e-11
-7.42735e-10
3.36969e-11
-7.52054e-10
3.12539e-11
-7.6063e-10
2.87588e-11
-7.6845e-10
2.6217e-11
-7.75501e-10
2.36329e-11
-7.81773e-10
2.10107e-11
-7.87254e-10
1.83549e-11
-7.91936e-10
1.56703e-11
-7.95813e-10
1.29611e-11
-7.98879e-10
1.0232e-11
-8.01128e-10
7.4881e-12
-8.02557e-10
4.73346e-12
-8.03164e-10
1.97183e-12
-8.0295e-10
-7.922e-13
-8.01914e-10
-3.55314e-12
-8.00058e-10
-6.30623e-12
-7.97385e-10
-9.04801e-12
-7.93902e-10
-1.17746e-11
-7.89612e-10
-1.4481e-11
-7.84524e-10
-1.71619e-11
-7.78647e-10
-1.98135e-11
-7.71989e-10
-2.24318e-11
-7.64563e-10
-2.50126e-11
-7.5638e-10
-2.75508e-11
-7.47454e-10
-3.00422e-11
-7.37802e-10
-3.24826e-11
-7.27438e-10
-3.48677e-11
-7.16381e-10
-3.71931e-11
-7.0465e-10
-3.94547e-11
-6.92265e-10
-4.16484e-11
-6.79247e-10
-4.37695e-11
-6.65621e-10
-4.58131e-11
-6.51408e-10
-4.77748e-11
-6.36636e-10
-4.96511e-11
-6.21331e-10
-5.14378e-11
-6.05519e-10
-5.31301e-11
-5.8923e-10
-5.47238e-11
-5.72495e-10
-5.6215e-11
-5.55346e-10
-5.75999e-11
-5.37813e-10
-5.88742e-11
-5.19932e-10
-6.00338e-11
-5.01737e-10
-6.10748e-11
-4.83264e-10
-6.19939e-11
-4.6455e-10
-6.27874e-11
-4.45633e-10
-6.34517e-11
-4.26552e-10
-6.39836e-11
-4.07346e-10
-6.43801e-11
-3.88057e-10
-6.46384e-11
-3.68726e-10
-6.47552e-11
-3.49394e-10
-6.47276e-11
-3.30105e-10
-6.45535e-11
-3.10903e-10
-6.42312e-11
-2.9183e-10
-6.37587e-11
-2.72931e-10
-6.31344e-11
-2.5425e-10
-6.23574e-11
-2.35833e-10
-6.14269e-11
-2.17725e-10
-6.03426e-11
-1.9997e-10
-5.91041e-11
-1.82611e-10
-5.77119e-11
-1.65693e-10
-5.61674e-11
-1.49261e-10
-5.44726e-11
-1.33356e-10
-5.26292e-11
-1.18021e-10
-5.06397e-11
-1.03296e-10
-4.85076e-11
-8.92209e-11
-4.62375e-11
-7.5833e-11
-4.38347e-11
-6.31682e-11
-4.13051e-11
-5.12596e-11
-3.86555e-11
-4.01387e-11
-3.58943e-11
-2.98345e-11
-3.30315e-11
-2.03728e-11
-3.00778e-11
-1.17747e-11
-2.70449e-11
-4.05735e-12
-2.39462e-11
2.76651e-12
-2.07978e-11
8.68795e-12
-1.76172e-11
1.37041e-11
-1.4424e-11
1.78192e-11
-1.12402e-11
2.10443e-11
-8.0902e-12
2.33981e-11
-5.00213e-12
2.4907e-11
-2.00799e-12
2.56071e-11
8.56749e-13
2.55443e-11
3.55295e-12
2.47767e-11
6.03669e-12
2.33742e-11
8.25825e-12
2.14188e-11
1.01623e-11
1.90072e-11
1.16877e-11
1.62505e-11
1.27679e-11
1.32743e-11
1.33316e-11
1.02198e-11
1.33047e-11
7.24412e-12
1.26129e-11
4.52201e-12
1.11881e-11
2.24984e-12
8.97782e-12
6.52793e-13
5.96081e-12
2.19006e-12
8.39297e-13
-7.59669e-14
2.21172e-12
-6.75506e-12
4.16291e-12
-1.15434e-11
6.5541e-12
-1.42673e-11
9.16688e-12
-1.56146e-11
1.17929e-11
-1.5917e-11
1.42444e-11
-1.53513e-11
1.63555e-11
-1.40489e-11
1.79859e-11
-1.21159e-11
1.9012e-11
-9.65165e-12
1.93303e-11
-6.74059e-12
1.88545e-11
-3.45948e-12
1.75105e-11
1.22066e-13
1.52442e-11
3.94466e-12
1.20085e-11
7.95322e-12
7.7693e-12
1.20991e-11
2.50585e-12
1.63399e-11
-3.79945e-12
2.06352e-11
-1.11511e-11
2.49506e-11
-1.95462e-11
2.92548e-11
-2.89793e-11
3.35169e-11
-3.94331e-11
3.7715e-11
-5.08872e-11
4.18261e-11
-6.33191e-11
4.58287e-11
-7.66961e-11
4.97075e-11
-9.09862e-11
5.34459e-11
-1.06154e-10
5.7029e-11
-1.22158e-10
6.0448e-11
-1.38956e-10
6.36913e-11
-1.56504e-10
6.67492e-11
-1.74754e-10
6.96165e-11
-1.93657e-10
7.22859e-11
-2.13166e-10
7.4751e-11
-2.33228e-10
7.70099e-11
-2.5379e-10
7.90594e-11
-2.74803e-10
8.08964e-11
-2.96211e-10
8.25206e-11
-3.17961e-10
8.39314e-11
-3.40002e-10
8.51279e-11
-3.62279e-10
8.61112e-11
-3.84738e-10
8.68832e-11
-4.07329e-10
8.74446e-11
-4.29999e-10
8.77982e-11
-4.52696e-10
8.79481e-11
-4.75369e-10
8.78961e-11
-4.9797e-10
8.7645e-11
-5.20449e-10
8.72002e-11
-5.42757e-10
8.65655e-11
-5.64849e-10
8.57444e-11
-5.86678e-10
8.47422e-11
-6.082e-10
8.35649e-11
-6.29372e-10
8.22172e-11
-6.50152e-10
8.07035e-11
-6.70499e-10
7.90296e-11
-6.90374e-10
7.72014e-11
-7.0974e-10
7.52246e-11
-7.2856e-10
7.31054e-11
-7.46797e-10
7.08498e-11
-7.64421e-10
6.84628e-11
-7.81399e-10
6.59505e-11
-7.97701e-10
6.33198e-11
-8.13297e-10
6.05772e-11
-8.28161e-10
5.77277e-11
-8.42267e-10
5.47773e-11
-8.55591e-10
5.17333e-11
-8.68109e-10
4.86024e-11
-8.79803e-10
4.53897e-11
-8.90651e-10
4.21009e-11
-9.00635e-10
3.87431e-11
-9.09739e-10
3.53222e-11
-9.17951e-10
3.18438e-11
-9.25255e-10
2.83143e-11
-9.3164e-10
2.474e-11
-9.37095e-10
2.11266e-11
-9.41615e-10
1.74797e-11
-9.4519e-10
1.38064e-11
-9.47816e-10
1.01132e-11
-9.49487e-10
6.40523e-12
-9.50204e-10
2.68783e-12
-9.49964e-10
-1.03242e-12
-9.48768e-10
-4.74869e-12
-9.4662e-10
-8.4553e-12
-9.43521e-10
-1.2147e-11
-9.39479e-10
-1.58178e-11
-9.34499e-10
-1.9461e-11
-9.2859e-10
-2.30706e-11
-9.21764e-10
-2.66412e-11
-9.14029e-10
-3.01671e-11
-9.05399e-10
-3.36421e-11
-8.95889e-10
-3.70604e-11
-8.85516e-10
-4.04161e-11
-8.74297e-10
-4.3703e-11
-8.62249e-10
-4.69152e-11
-8.49394e-10
-5.00473e-11
-8.35754e-10
-5.30942e-11
-8.21354e-10
-5.60495e-11
-8.06217e-10
-5.89067e-11
-7.90369e-10
-6.166e-11
-7.7384e-10
-6.43041e-11
-7.56658e-10
-6.68338e-11
-7.38854e-10
-6.9243e-11
-7.20459e-10
-7.15251e-11
-7.01509e-10
-7.36749e-11
-6.82037e-10
-7.56871e-11
-6.62081e-10
-7.75567e-11
-6.41676e-10
-7.92781e-11
-6.20864e-10
-8.08462e-11
-5.99683e-10
-8.22556e-11
-5.78176e-10
-8.35014e-11
-5.56385e-10
-8.45787e-11
-5.34354e-10
-8.5483e-11
-5.12127e-10
-8.62103e-11
-4.89751e-10
-8.67567e-11
-4.67273e-10
-8.71174e-11
-4.44739e-10
-8.72886e-11
-4.22199e-10
-8.72671e-11
-3.99701e-10
-8.70502e-11
-3.77297e-10
-8.66356e-11
-3.55035e-10
-8.60206e-11
-3.32968e-10
-8.52024e-11
-3.11145e-10
-8.418e-11
-2.89618e-10
-8.2953e-11
-2.68439e-10
-8.1521e-11
-2.47659e-10
-7.9884e-11
-2.27328e-10
-7.80428e-11
-2.07496e-10
-7.59987e-11
-1.88215e-10
-7.37543e-11
-1.69531e-10
-7.13127e-11
-1.51494e-10
-6.86771e-11
-1.34148e-10
-6.58527e-11
-1.1754e-10
-6.2846e-11
-1.01711e-10
-5.96638e-11
-8.67027e-11
-5.63139e-11
-7.25524e-11
-5.28058e-11
-5.92958e-11
-4.91507e-11
-4.6965e-11
-4.53619e-11
-3.55881e-11
-4.14541e-11
-2.51898e-11
-3.74435e-11
-1.57895e-11
-3.33474e-11
-7.40146e-12
-2.91863e-11
-3.48941e-14
-2.49839e-11
6.30751e-12
-2.07664e-11
1.16306e-11
-1.65626e-11
1.59463e-11
-1.2405e-11
1.92744e-11
-8.33011e-12
2.16446e-11
-4.37837e-12
2.30967e-11
-5.95101e-13
2.3681e-11
2.96916e-12
2.34594e-11
6.25858e-12
2.25072e-11
9.2111e-12
2.09118e-11
1.17579e-11
1.87756e-11
1.38238e-11
1.62161e-11
1.53277e-11
1.33659e-11
1.61826e-11
1.03735e-11
1.62976e-11
7.40615e-12
1.55804e-11
4.65189e-12
1.39423e-11
2.32567e-12
1.13042e-11
6.76819e-13
7.61036e-12
2.86732e-12
8.38489e-13
-9.15555e-13
2.26691e-12
-8.18346e-12
4.19633e-12
-1.34733e-11
6.47488e-12
-1.65438e-11
8.8893e-12
-1.80305e-11
1.12356e-11
-1.82618e-11
1.33236e-11
-1.74413e-11
1.4991e-11
-1.57153e-11
1.60903e-11
-1.32159e-11
1.64965e-11
-1.00589e-11
1.61047e-11
-6.34775e-12
1.48204e-11
-2.17682e-12
1.25722e-11
2.37022e-12
9.29689e-12
7.21967e-12
4.9463e-12
1.23027e-11
-5.13048e-13
1.75598e-11
-7.10913e-12
2.29359e-11
-1.48564e-11
2.83818e-11
-2.37599e-11
3.38548e-11
-3.38197e-11
3.93133e-11
-4.50253e-11
4.47226e-11
-5.73603e-11
5.00511e-11
-7.0804e-11
5.52689e-11
-8.53277e-11
6.03525e-11
-1.00899e-10
6.52794e-11
-1.17482e-10
7.00282e-11
-1.35036e-10
7.45829e-11
-1.53515e-10
7.89284e-11
-1.72875e-10
8.30501e-11
-1.93063e-10
8.69382e-11
-2.1403e-10
9.05834e-11
-2.35721e-10
9.39758e-11
-2.5808e-10
9.711e-11
-2.81051e-10
9.99814e-11
-3.04577e-10
1.02585e-10
-3.28598e-10
1.04917e-10
-3.53054e-10
1.06978e-10
-3.77889e-10
1.08765e-10
-4.03041e-10
1.10279e-10
-4.28449e-10
1.11521e-10
-4.54057e-10
1.12491e-10
-4.79806e-10
1.13192e-10
-5.05634e-10
1.13628e-10
-5.31487e-10
1.13801e-10
-5.57307e-10
1.13715e-10
-5.83037e-10
1.13375e-10
-6.08623e-10
1.12786e-10
-6.3401e-10
1.11953e-10
-6.59148e-10
1.10881e-10
-6.83982e-10
1.09577e-10
-7.08464e-10
1.08047e-10
-7.32546e-10
1.06298e-10
-7.56179e-10
1.04336e-10
-7.79317e-10
1.02168e-10
-8.01918e-10
9.98019e-11
-8.23938e-10