/*--------------------------------*- C++ -*----------------------------------*\
  =========                 |
  \\      /  F ield         | OpenFOAM: The Open Source CFD Toolbox
   \\    /   O peration     | Website:  https://openfoam.org
    \\  /    A nd           | Version:  7
     \\/     M anipulation  |
\*---------------------------------------------------------------------------*/
FoamFile
{
    version     2.0;
    format      ascii;
    class       volScalarField;
    location    "0.175";
    object      p;
}
// * * * * * * * * * * * * * * * * * * * * * * * * * * * * * * * * * * * * * //

dimensions      [0 2 -2 0 0 0 0];

internalField   nonuniform List<scalar> 
51200
(
3.33625e-08
-5.44025e-08
-6.81618e-07
-2.08859e-06
-3.7421e-06
-5.31709e-06
-6.80126e-06
-8.23346e-06
-9.64358e-06
-1.10578e-05
-1.24862e-05
-1.39311e-05
-1.53993e-05
-1.6895e-05
-1.8414e-05
-1.99553e-05
-2.15057e-05
-2.30572e-05
-2.46109e-05
-2.61616e-05
-2.77119e-05
-2.92577e-05
-3.07874e-05
-3.23017e-05
-3.37939e-05
-3.52591e-05
-3.67026e-05
-3.81182e-05
-3.95024e-05
-4.08578e-05
-4.21753e-05
-4.34479e-05
-4.46765e-05
-4.58601e-05
-4.70033e-05
-4.81147e-05
-4.91931e-05
-5.02281e-05
-5.12147e-05
-5.21523e-05
-5.30406e-05
-5.38844e-05
-5.46907e-05
-5.5455e-05
-5.61695e-05
-5.68352e-05
-5.74522e-05
-5.80159e-05
-5.85267e-05
-5.89888e-05
-5.94016e-05
-5.97668e-05
-6.00934e-05
-6.0383e-05
-6.06257e-05
-6.0815e-05
-6.09536e-05
-6.10446e-05
-6.10918e-05
-6.11025e-05
-6.10804e-05
-6.1021e-05
-6.09209e-05
-6.07841e-05
-6.06164e-05
-6.04193e-05
-6.01927e-05
-5.99395e-05
-5.96633e-05
-5.93645e-05
-5.90418e-05
-5.86996e-05
-5.8346e-05
-5.7986e-05
-5.76189e-05
-5.72442e-05
-5.68621e-05
-5.64707e-05
-5.60682e-05
-5.5659e-05
-5.52515e-05
-5.485e-05
-5.44522e-05
-5.40576e-05
-5.36697e-05
-5.32905e-05
-5.29167e-05
-5.25458e-05
-5.21817e-05
-5.18316e-05
-5.14989e-05
-5.1185e-05
-5.08935e-05
-5.06296e-05
-5.03946e-05
-5.01855e-05
-5.00004e-05
-4.98424e-05
-4.97158e-05
-4.96212e-05
-4.95569e-05
-4.95239e-05
-4.95264e-05
-4.95676e-05
-4.96478e-05
-4.97659e-05
-4.99224e-05
-5.01177e-05
-5.03503e-05
-5.06198e-05
-5.09291e-05
-5.12844e-05
-5.16905e-05
-5.21462e-05
-5.26483e-05
-5.31966e-05
-5.37943e-05
-5.44437e-05
-5.51416e-05
-5.58822e-05
-5.66618e-05
-5.74794e-05
-5.83344e-05
-5.92262e-05
-6.01555e-05
-6.1126e-05
-6.21413e-05
-6.31999e-05
-6.42953e-05
-6.54216e-05
-6.6578e-05
-6.77681e-05
-6.89934e-05
-7.02481e-05
-7.1523e-05
-7.28113e-05
-7.41115e-05
-7.54245e-05
-7.67475e-05
-7.80715e-05
-7.93867e-05
-8.06852e-05
-8.19597e-05
-8.32009e-05
-8.43988e-05
-8.55459e-05
-8.6639e-05
-8.76748e-05
-8.86448e-05
-8.9536e-05
-9.03363e-05
-9.1037e-05
-9.16312e-05
-9.21095e-05
-9.24589e-05
-9.26695e-05
-9.2743e-05
-9.26964e-05
-9.25637e-05
-9.24159e-05
-3.23232e-07
-1.15716e-06
-2.10823e-06
-3.42829e-06
-4.83262e-06
-6.14864e-06
-7.41771e-06
-8.67633e-06
-9.94439e-06
-1.1234e-05
-1.25539e-05
-1.39033e-05
-1.52882e-05
-1.67004e-05
-1.81406e-05
-1.95974e-05
-2.10647e-05
-2.2542e-05
-2.40196e-05
-2.55014e-05
-2.69841e-05
-2.84571e-05
-2.99225e-05
-3.13718e-05
-3.28011e-05
-3.42162e-05
-3.56081e-05
-3.69728e-05
-3.83124e-05
-3.96197e-05
-4.08954e-05
-4.21407e-05
-4.33474e-05
-4.45118e-05
-4.56382e-05
-4.67284e-05
-4.77835e-05
-4.88037e-05
-4.97841e-05
-5.07181e-05
-5.16047e-05
-5.24476e-05
-5.32499e-05
-5.40122e-05
-5.47342e-05
-5.54132e-05
-5.60451e-05
-5.66284e-05
-5.71648e-05
-5.76535e-05
-5.8092e-05
-5.84838e-05
-5.88357e-05
-5.91492e-05
-5.94216e-05
-5.965e-05
-5.98308e-05
-5.99611e-05
-6.00454e-05
-6.00925e-05
-6.01076e-05
-6.00905e-05
-6.00401e-05
-5.99563e-05
-5.984e-05
-5.96908e-05
-5.95097e-05
-5.93016e-05
-5.90718e-05
-5.88222e-05
-5.85533e-05
-5.8269e-05
-5.79731e-05
-5.76659e-05
-5.73485e-05
-5.70243e-05
-5.66948e-05
-5.63566e-05
-5.60082e-05
-5.56552e-05
-5.5305e-05
-5.49591e-05
-5.46164e-05
-5.42779e-05
-5.39459e-05
-5.36195e-05
-5.32961e-05
-5.29771e-05
-5.26671e-05
-5.23693e-05
-5.20848e-05
-5.18171e-05
-5.15728e-05
-5.13565e-05
-5.11676e-05
-5.10034e-05
-5.08641e-05
-5.07516e-05
-5.06675e-05
-5.06119e-05
-5.05861e-05
-5.05939e-05
-5.06374e-05
-5.07157e-05
-5.08279e-05
-5.09754e-05
-5.11614e-05
-5.13861e-05
-5.16454e-05
-5.19366e-05
-5.22635e-05
-5.26336e-05
-5.30523e-05
-5.35193e-05
-5.40327e-05
-5.45926e-05
-5.51996e-05
-5.58521e-05
-5.65462e-05
-5.72792e-05
-5.80517e-05
-5.88639e-05
-5.9711e-05
-6.05884e-05
-6.14961e-05
-6.24398e-05
-6.34254e-05
-6.44529e-05
-6.55161e-05
-6.66091e-05
-6.773e-05
-6.88785e-05
-7.00534e-05
-7.12514e-05
-7.24689e-05
-7.37025e-05
-7.49484e-05
-7.6202e-05
-7.74581e-05
-7.871e-05
-7.99516e-05
-8.11774e-05
-8.23799e-05
-8.35491e-05
-8.46751e-05
-8.57504e-05
-8.67709e-05
-8.77331e-05
-8.86312e-05
-8.94561e-05
-9.01975e-05
-9.08476e-05
-9.14001e-05
-9.18477e-05
-9.21819e-05
-9.23974e-05
-9.24985e-05
-9.24993e-05
-9.24132e-05
-9.227e-05
-1.19775e-06
-2.23371e-06
-3.28545e-06
-4.46516e-06
-5.65348e-06
-6.77763e-06
-7.89001e-06
-9.01309e-06
-1.01645e-05
-1.13512e-05
-1.25748e-05
-1.38453e-05
-1.5154e-05
-1.65008e-05
-1.78718e-05
-1.92566e-05
-2.06588e-05
-2.20668e-05
-2.3485e-05
-2.49119e-05
-2.63357e-05
-2.77573e-05
-2.91678e-05
-3.05613e-05
-3.19462e-05
-3.33174e-05
-3.46693e-05
-3.60021e-05
-3.73047e-05
-3.85741e-05
-3.98175e-05
-4.10318e-05
-4.22145e-05
-4.33652e-05
-4.44786e-05
-4.5553e-05
-4.65924e-05
-4.75979e-05
-4.85669e-05
-4.94969e-05
-5.03846e-05
-5.12285e-05
-5.2031e-05
-5.27955e-05
-5.35229e-05
-5.42104e-05
-5.48536e-05
-5.54512e-05
-5.60053e-05
-5.65151e-05
-5.69788e-05
-5.73976e-05
-5.77733e-05
-5.81076e-05
-5.84029e-05
-5.86594e-05
-5.88727e-05
-5.90383e-05
-5.91575e-05
-5.9237e-05
-5.92833e-05
-5.93003e-05
-5.92893e-05
-5.92495e-05
-5.91776e-05
-5.90706e-05
-5.89302e-05
-5.87629e-05
-5.85729e-05
-5.83625e-05
-5.81364e-05
-5.78997e-05
-5.76522e-05
-5.7391e-05
-5.71185e-05
-5.68394e-05
-5.65533e-05
-5.62574e-05
-5.59542e-05
-5.56504e-05
-5.53494e-05
-5.50505e-05
-5.47548e-05
-5.44657e-05
-5.4183e-05
-5.3902e-05
-5.36212e-05
-5.33459e-05
-5.3081e-05
-5.28269e-05
-5.25837e-05
-5.23568e-05
-5.21537e-05
-5.1977e-05
-5.18247e-05
-5.16963e-05
-5.15948e-05
-5.15215e-05
-5.14739e-05
-5.14512e-05
-5.1458e-05
-5.15009e-05
-5.1581e-05
-5.16934e-05
-5.18348e-05
-5.20082e-05
-5.22183e-05
-5.24649e-05
-5.2744e-05
-5.30533e-05
-5.33966e-05
-5.37804e-05
-5.42082e-05
-5.46809e-05
-5.52005e-05
-5.57698e-05
-5.63869e-05
-5.70453e-05
-5.77385e-05
-5.8466e-05
-5.92317e-05
-6.00366e-05
-6.08748e-05
-6.17399e-05
-6.26326e-05
-6.35588e-05
-6.45227e-05
-6.55235e-05
-6.65571e-05
-6.76211e-05
-6.87138e-05
-6.98318e-05
-7.09693e-05
-7.21226e-05
-7.32925e-05
-7.44797e-05
-7.56799e-05
-7.68847e-05
-7.80865e-05
-7.92809e-05
-8.0465e-05
-8.16338e-05
-8.27793e-05
-8.38914e-05
-8.49618e-05
-8.5984e-05
-8.69523e-05
-8.7861e-05
-8.87039e-05
-8.94755e-05
-9.01699e-05
-9.07812e-05
-9.1303e-05
-9.17281e-05
-9.20497e-05
-9.22653e-05
-9.23795e-05
-9.24004e-05
-9.23203e-05
-9.21401e-05
-2.64029e-06
-3.52184e-06
-4.39389e-06
-5.33136e-06
-6.29218e-06
-7.25132e-06
-8.22815e-06
-9.23876e-06
-1.02943e-05
-1.13941e-05
-1.25447e-05
-1.37414e-05
-1.49858e-05
-1.62713e-05
-1.75789e-05
-1.8909e-05
-2.02488e-05
-2.16015e-05
-2.297e-05
-2.43429e-05
-2.57217e-05
-2.70982e-05
-2.84607e-05
-2.9816e-05
-3.11611e-05
-3.24919e-05
-3.38134e-05
-3.51158e-05
-3.63903e-05
-3.76383e-05
-3.88551e-05
-4.00393e-05
-4.11972e-05
-4.23277e-05
-4.34258e-05
-4.44918e-05
-4.55231e-05
-4.65165e-05
-4.74748e-05
-4.83982e-05
-4.92836e-05
-5.01306e-05
-5.09395e-05
-5.17106e-05
-5.24452e-05
-5.31413e-05
-5.37947e-05
-5.44036e-05
-5.49686e-05
-5.5491e-05
-5.59734e-05
-5.64169e-05
-5.68191e-05
-5.71784e-05
-5.7496e-05
-5.77736e-05
-5.80102e-05
-5.82046e-05
-5.83578e-05
-5.84722e-05
-5.8551e-05
-5.85986e-05
-5.86199e-05
-5.86151e-05
-5.85796e-05
-5.85103e-05
-5.84106e-05
-5.82845e-05
-5.81327e-05
-5.79586e-05
-5.77702e-05
-5.75724e-05
-5.73634e-05
-5.71421e-05
-5.69119e-05
-5.66745e-05
-5.64266e-05
-5.61682e-05
-5.59062e-05
-5.56466e-05
-5.53889e-05
-5.51322e-05
-5.48801e-05
-5.46362e-05
-5.43973e-05
-5.41576e-05
-5.39173e-05
-5.36824e-05
-5.34561e-05
-5.3238e-05
-5.30308e-05
-5.28418e-05
-5.26769e-05
-5.25355e-05
-5.24151e-05
-5.23178e-05
-5.22488e-05
-5.22086e-05
-5.21934e-05
-5.22023e-05
-5.22409e-05
-5.23149e-05
-5.24244e-05
-5.25649e-05
-5.27344e-05
-5.2935e-05
-5.31683e-05
-5.34322e-05
-5.37246e-05
-5.40478e-05
-5.44071e-05
-5.48056e-05
-5.52432e-05
-5.57213e-05
-5.62454e-05
-5.68198e-05
-5.7442e-05
-5.81038e-05
-5.87988e-05
-5.95265e-05
-6.02893e-05
-6.10857e-05
-6.19108e-05
-6.27626e-05
-6.36442e-05
-6.45599e-05
-6.55099e-05
-6.64901e-05
-6.74984e-05
-6.85359e-05
-6.96032e-05
-7.06951e-05
-7.18033e-05
-7.29224e-05
-7.40543e-05
-7.5201e-05
-7.63588e-05
-7.75191e-05
-7.86744e-05
-7.98213e-05
-8.0959e-05
-8.20826e-05
-8.31826e-05
-8.42489e-05
-8.52752e-05
-8.62567e-05
-8.71862e-05
-8.80545e-05
-8.8854e-05
-8.95818e-05
-9.02375e-05
-9.08184e-05
-9.13178e-05
-9.17269e-05
-9.20393e-05
-9.22534e-05
-9.23728e-05
-9.24001e-05
-9.23112e-05
-9.20905e-05
-4.06484e-06
-4.66777e-06
-5.30878e-06
-6.01872e-06
-6.79943e-06
-7.61614e-06
-8.47696e-06
-9.39047e-06
-1.03564e-05
-1.13858e-05
-1.24694e-05
-1.36037e-05
-1.47882e-05
-1.60066e-05
-1.72585e-05
-1.85289e-05
-1.98157e-05
-2.11223e-05
-2.24383e-05
-2.37652e-05
-2.50987e-05
-2.64259e-05
-2.77505e-05
-2.90706e-05
-3.03788e-05
-3.16798e-05
-3.29682e-05
-3.42362e-05
-3.54865e-05
-3.67135e-05
-3.79089e-05
-3.90745e-05
-4.02111e-05
-4.1318e-05
-4.23992e-05
-4.34542e-05
-4.44764e-05
-4.54637e-05
-4.64156e-05
-4.73311e-05
-4.82121e-05
-4.90598e-05
-4.98732e-05
-5.06516e-05
-5.13941e-05
-5.2099e-05
-5.27642e-05
-5.33874e-05
-5.39659e-05
-5.45013e-05
-5.49984e-05
-5.54599e-05
-5.58846e-05
-5.627e-05
-5.66144e-05
-5.69156e-05
-5.71735e-05
-5.73919e-05
-5.75747e-05
-5.77227e-05
-5.78362e-05
-5.79191e-05
-5.79752e-05
-5.80031e-05
-5.79996e-05
-5.79656e-05
-5.79046e-05
-5.78172e-05
-5.77038e-05
-5.75698e-05
-5.74215e-05
-5.72605e-05
-5.70866e-05
-5.69034e-05
-5.67134e-05
-5.65141e-05
-5.63027e-05
-5.6083e-05
-5.58624e-05
-5.56439e-05
-5.54265e-05
-5.52118e-05
-5.50037e-05
-5.48024e-05
-5.46033e-05
-5.44038e-05
-5.42059e-05
-5.40125e-05
-5.38236e-05
-5.36406e-05
-5.34695e-05
-5.3318e-05
-5.31889e-05
-5.30805e-05
-5.29925e-05
-5.29281e-05
-5.28901e-05
-5.28783e-05
-5.28916e-05
-5.29323e-05
-5.30045e-05
-5.31095e-05
-5.32448e-05
-5.34092e-05
-5.36045e-05
-5.38324e-05
-5.40899e-05
-5.43723e-05
-5.46792e-05
-5.50164e-05
-5.53898e-05
-5.58008e-05
-5.62487e-05
-5.67361e-05
-5.72691e-05
-5.78493e-05
-5.8472e-05
-5.91315e-05
-5.98255e-05
-6.05541e-05
-6.1316e-05
-6.21056e-05
-6.29186e-05
-6.37577e-05
-6.4629e-05
-6.5535e-05
-6.64729e-05
-6.74378e-05
-6.8428e-05
-6.94446e-05
-7.04872e-05
-7.15511e-05
-7.26297e-05
-7.37188e-05
-7.48184e-05
-7.59287e-05
-7.70453e-05
-7.81615e-05
-7.92729e-05
-8.03777e-05
-8.14742e-05
-8.25577e-05
-8.36182e-05
-8.46459e-05
-8.56347e-05
-8.65801e-05
-8.74742e-05
-8.83066e-05
-8.90698e-05
-8.97622e-05
-9.03865e-05
-9.09425e-05
-9.14239e-05
-9.18211e-05
-9.21275e-05
-9.23412e-05
-9.24638e-05
-9.24933e-05
-9.23964e-05
-9.21496e-05
-5.1558e-06
-5.49509e-06
-5.94741e-06
-6.50046e-06
-7.14296e-06
-7.85141e-06
-8.62278e-06
-9.45427e-06
-1.03518e-05
-1.13142e-05
-1.23394e-05
-1.3423e-05
-1.45472e-05
-1.57117e-05
-1.6905e-05
-1.81204e-05
-1.93626e-05
-2.06212e-05
-2.1895e-05
-2.31811e-05
-2.44666e-05
-2.57533e-05
-2.70409e-05
-2.83231e-05
-2.96036e-05
-3.0878e-05
-3.21356e-05
-3.33772e-05
-3.46014e-05
-3.58011e-05
-3.6977e-05
-3.81275e-05
-3.92468e-05
-4.03386e-05
-4.14056e-05
-4.24455e-05
-4.34576e-05
-4.44395e-05
-4.53873e-05
-4.63001e-05
-4.71796e-05
-4.80272e-05
-4.88441e-05
-4.96286e-05
-5.03772e-05
-5.10892e-05
-5.17638e-05
-5.23989e-05
-5.29926e-05
-5.35456e-05
-5.40598e-05
-5.45373e-05
-5.49796e-05
-5.53865e-05
-5.57555e-05
-5.60822e-05
-5.63657e-05
-5.66098e-05
-5.68185e-05
-5.69944e-05
-5.71402e-05
-5.72591e-05
-5.73506e-05
-5.74117e-05
-5.74417e-05
-5.74435e-05
-5.74181e-05
-5.73652e-05
-5.72886e-05
-5.71949e-05
-5.7086e-05
-5.69612e-05
-5.68237e-05
-5.66783e-05
-5.65248e-05
-5.63595e-05
-5.61834e-05
-5.60026e-05
-5.58216e-05
-5.56406e-05
-5.54613e-05
-5.52884e-05
-5.51232e-05
-5.49615e-05
-5.47997e-05
-5.46392e-05
-5.44826e-05
-5.43291e-05
-5.41772e-05
-5.40311e-05
-5.38985e-05
-5.37845e-05
-5.36888e-05
-5.36115e-05
-5.35558e-05
-5.35247e-05
-5.35173e-05
-5.35316e-05
-5.35701e-05
-5.36393e-05
-5.37418e-05
-5.3875e-05
-5.40352e-05
-5.4223e-05
-5.44426e-05
-5.46945e-05
-5.49737e-05
-5.52758e-05
-5.56021e-05
-5.59578e-05
-5.63461e-05
-5.67674e-05
-5.72244e-05
-5.77224e-05
-5.8266e-05
-5.88527e-05
-5.94755e-05
-6.0131e-05
-6.08211e-05
-6.1547e-05
-6.23046e-05
-6.30874e-05
-6.38926e-05
-6.47247e-05
-6.55891e-05
-6.64858e-05
-6.74114e-05
-6.83633e-05
-6.9341e-05
-7.03432e-05
-7.13655e-05
-7.24023e-05
-7.34505e-05
-7.45099e-05
-7.558e-05
-7.66571e-05
-7.77357e-05
-7.88117e-05
-7.98841e-05
-8.09523e-05
-8.2013e-05
-8.30601e-05
-8.40853e-05
-8.50802e-05
-8.60384e-05
-8.69527e-05
-8.78144e-05
-8.86143e-05
-8.93475e-05
-9.00147e-05
-9.06183e-05
-9.1157e-05
-9.16247e-05
-9.2013e-05
-9.23157e-05
-9.25301e-05
-9.26554e-05
-9.26859e-05
-9.25854e-05
-9.23289e-05
-5.88741e-06
-6.04126e-06
-6.36016e-06
-6.79838e-06
-7.33842e-06
-7.9622e-06
-8.66306e-06
-9.43667e-06
-1.02765e-05
-1.11851e-05
-1.21612e-05
-1.31902e-05
-1.42674e-05
-1.53798e-05
-1.65202e-05
-1.76925e-05
-1.88882e-05
-2.01056e-05
-2.13427e-05
-2.25852e-05
-2.3833e-05
-2.50855e-05
-2.63358e-05
-2.75873e-05
-2.88399e-05
-3.0084e-05
-3.13187e-05
-3.25405e-05
-3.37399e-05
-3.49172e-05
-3.60728e-05
-3.72029e-05
-3.83081e-05
-3.93897e-05
-4.04452e-05
-4.14741e-05
-4.24768e-05
-4.34509e-05
-4.43944e-05
-4.53065e-05
-4.61866e-05
-4.70366e-05
-4.78572e-05
-4.86467e-05
-4.94027e-05
-5.01226e-05
-5.08044e-05
-5.14478e-05
-5.20536e-05
-5.2623e-05
-5.31558e-05
-5.36519e-05
-5.41126e-05
-5.45379e-05
-5.4926e-05
-5.5275e-05
-5.55851e-05
-5.58572e-05
-5.6093e-05
-5.62963e-05
-5.64727e-05
-5.6624e-05
-5.67471e-05
-5.68401e-05
-5.69049e-05
-5.69426e-05
-5.69514e-05
-5.69331e-05
-5.68938e-05
-5.68377e-05
-5.67645e-05
-5.66755e-05
-5.65758e-05
-5.64674e-05
-5.6347e-05
-5.62136e-05
-5.60724e-05
-5.59289e-05
-5.57838e-05
-5.56375e-05
-5.54951e-05
-5.53615e-05
-5.52351e-05
-5.51104e-05
-5.4986e-05
-5.48647e-05
-5.47471e-05
-5.46304e-05
-5.45153e-05
-5.44079e-05
-5.4315e-05
-5.42381e-05
-5.41756e-05
-5.41298e-05
-5.41058e-05
-5.41052e-05
-5.41256e-05
-5.41654e-05
-5.42291e-05
-5.43234e-05
-5.44498e-05
-5.46053e-05
-5.47882e-05
-5.50008e-05
-5.52451e-05
-5.55188e-05
-5.5817e-05
-5.61387e-05
-5.64869e-05
-5.68641e-05
-5.72696e-05
-5.77037e-05
-5.81714e-05
-5.86799e-05
-5.92312e-05
-5.98207e-05
-6.04424e-05
-6.10955e-05
-6.17825e-05
-6.25033e-05
-6.3253e-05
-6.40273e-05
-6.4827e-05
-6.56568e-05
-6.65188e-05
-6.74096e-05
-6.83258e-05
-6.9267e-05
-7.0234e-05
-7.12235e-05
-7.2228e-05
-7.32412e-05
-7.42621e-05
-7.52929e-05
-7.63338e-05
-7.73796e-05
-7.8424e-05
-7.94654e-05
-8.05056e-05
-8.15436e-05
-8.25739e-05
-8.3589e-05
-8.45819e-05
-8.55475e-05
-8.64793e-05
-8.7368e-05
-8.82025e-05
-8.89755e-05
-8.96859e-05
-9.03365e-05
-9.09286e-05
-9.14579e-05
-9.19171e-05
-9.22992e-05
-9.25998e-05
-9.28159e-05
-9.29443e-05
-9.29774e-05
-9.28804e-05
-9.26305e-05
-6.30907e-06
-6.34875e-06
-6.5738e-06
-6.93321e-06
-7.40304e-06
-7.95972e-06
-8.60757e-06
-9.33451e-06
-1.01342e-05
-1.10024e-05
-1.19292e-05
-1.29131e-05
-1.39425e-05
-1.50069e-05
-1.61088e-05
-1.72388e-05
-1.8396e-05
-1.95798e-05
-2.07755e-05
-2.19811e-05
-2.31965e-05
-2.44148e-05
-2.56371e-05
-2.68639e-05
-2.8086e-05
-2.93037e-05
-3.05167e-05
-3.17154e-05
-3.28964e-05
-3.40573e-05
-3.51932e-05
-3.63056e-05
-3.73973e-05
-3.8467e-05
-3.95138e-05
-4.05363e-05
-4.15322e-05
-4.25001e-05
-4.34396e-05
-4.43502e-05
-4.52322e-05
-4.60852e-05
-4.69084e-05
-4.77018e-05
-4.84644e-05
-4.91924e-05
-4.98829e-05
-5.05354e-05
-5.11517e-05
-5.17338e-05
-5.22821e-05
-5.27969e-05
-5.32778e-05
-5.37221e-05
-5.41281e-05
-5.4497e-05
-5.48306e-05
-5.51283e-05
-5.53914e-05
-5.56248e-05
-5.58324e-05
-5.60133e-05
-5.61655e-05
-5.62897e-05
-5.63877e-05
-5.64581e-05
-5.65004e-05
-5.65188e-05
-5.65174e-05
-5.64968e-05
-5.64578e-05
-5.64051e-05
-5.63424e-05
-5.6268e-05
-5.61791e-05
-5.60783e-05
-5.59717e-05
-5.5862e-05
-5.57493e-05
-5.56371e-05
-5.55311e-05
-5.54333e-05
-5.53405e-05
-5.52503e-05
-5.51634e-05
-5.50807e-05
-5.49999e-05
-5.49191e-05
-5.48418e-05
-5.47743e-05
-5.47201e-05
-5.46788e-05
-5.46503e-05
-5.4638e-05
-5.46455e-05
-5.4672e-05
-5.47162e-05
-5.478e-05
-5.48688e-05
-5.49863e-05
-5.51319e-05
-5.5305e-05
-5.5508e-05
-5.57442e-05
-5.60126e-05
-5.63075e-05
-5.66254e-05
-5.6968e-05
-5.73384e-05
-5.7736e-05
-5.81587e-05
-5.86081e-05
-5.90903e-05
-5.96101e-05
-6.01664e-05
-6.07546e-05
-6.13727e-05
-6.20234e-05
-6.27083e-05
-6.3424e-05
-6.41658e-05
-6.49329e-05
-6.5729e-05
-6.65578e-05
-6.74182e-05
-6.83056e-05
-6.9217e-05
-7.01519e-05
-7.11096e-05
-7.20851e-05
-7.30709e-05
-7.40625e-05
-7.50602e-05
-7.60658e-05
-7.70789e-05
-7.8095e-05
-7.91095e-05
-8.01229e-05
-8.11373e-05
-8.21503e-05
-8.31546e-05
-8.41421e-05
-8.51071e-05
-8.60461e-05
-8.69538e-05
-8.782e-05
-8.8633e-05
-8.93866e-05
-9.00822e-05
-9.07232e-05
-9.13092e-05
-9.18337e-05
-9.22883e-05
-9.26677e-05
-9.29693e-05
-9.31896e-05
-9.33239e-05
-9.33645e-05
-9.32807e-05
-9.3053e-05
-6.47035e-06
-6.45271e-06
-6.61858e-06
-6.92495e-06
-7.34295e-06
-7.85918e-06
-8.46388e-06
-9.15555e-06
-9.92462e-06
-1.07552e-05
-1.16461e-05
-1.25879e-05
-1.35717e-05
-1.46015e-05
-1.56647e-05
-1.67604e-05
-1.78883e-05
-1.90353e-05
-2.01971e-05
-2.13724e-05
-2.25538e-05
-2.37434e-05
-2.49431e-05
-2.61436e-05
-2.73427e-05
-2.85401e-05
-2.97289e-05
-3.09061e-05
-3.20698e-05
-3.32135e-05
-3.43344e-05
-3.54347e-05
-3.6514e-05
-3.75727e-05
-3.86112e-05
-3.96274e-05
-4.0619e-05
-4.15835e-05
-4.25204e-05
-4.34308e-05
-4.43146e-05
-4.51702e-05
-4.59967e-05
-4.67939e-05
-4.75604e-05
-4.8294e-05
-4.89931e-05
-4.96564e-05
-5.02845e-05
-5.08785e-05
-5.14402e-05
-5.19711e-05
-5.24698e-05
-5.29327e-05
-5.33585e-05
-5.37484e-05
-5.41031e-05
-5.44235e-05
-5.47131e-05
-5.49763e-05
-5.52135e-05
-5.54226e-05
-5.56041e-05
-5.57599e-05
-5.58889e-05
-5.59897e-05
-5.60654e-05
-5.61205e-05
-5.61554e-05
-5.61692e-05
-5.61655e-05
-5.61497e-05
-5.61218e-05
-5.60787e-05
-5.60211e-05
-5.5954e-05
-5.58807e-05
-5.58016e-05
-5.57196e-05
-5.56412e-05
-5.55701e-05
-5.55048e-05
-5.54429e-05
-5.53857e-05
-5.53349e-05
-5.52882e-05
-5.52422e-05
-5.51976e-05
-5.51597e-05
-5.51322e-05
-5.51148e-05
-5.51074e-05
-5.51129e-05
-5.5135e-05
-5.51732e-05
-5.5225e-05
-5.52912e-05
-5.53774e-05
-5.54891e-05
-5.5627e-05
-5.57899e-05
-5.59799e-05
-5.62024e-05
-5.64598e-05
-5.67486e-05
-5.70633e-05
-5.74024e-05
-5.77679e-05
-5.81603e-05
-5.85764e-05
-5.90148e-05
-5.94799e-05
-5.99774e-05
-6.05081e-05
-6.10682e-05
-6.16546e-05
-6.22696e-05
-6.2918e-05
-6.35999e-05
-6.43105e-05
-6.50467e-05
-6.58104e-05
-6.66057e-05
-6.74338e-05
-6.82916e-05
-6.91754e-05
-7.0084e-05
-7.10158e-05
-7.19657e-05
-7.29267e-05
-7.38931e-05
-7.48642e-05
-7.58416e-05
-7.68256e-05
-7.78137e-05
-7.88033e-05
-7.97934e-05
-8.07854e-05
-8.17796e-05
-8.27713e-05
-8.37525e-05
-8.47161e-05
-8.56581e-05
-8.65752e-05
-8.74614e-05
-8.83073e-05
-8.9103e-05
-8.98438e-05
-9.05314e-05
-9.11678e-05
-9.17502e-05
-9.22712e-05
-9.27241e-05
-9.31055e-05
-9.34132e-05
-9.3643e-05
-9.37893e-05
-9.38454e-05
-9.37857e-05
-9.35942e-05
-6.41566e-06
-6.38086e-06
-6.51764e-06
-6.78816e-06
-7.17924e-06
-7.66606e-06
-8.24332e-06
-8.9084e-06
-9.64484e-06
-1.04486e-05
-1.13066e-05
-1.221e-05
-1.31639e-05
-1.41584e-05
-1.51912e-05
-1.62616e-05
-1.73569e-05
-1.84729e-05
-1.9608e-05
-2.07531e-05
-2.19082e-05
-2.30759e-05
-2.42493e-05
-2.54268e-05
-2.66082e-05
-2.77857e-05
-2.89554e-05
-3.01153e-05
-3.12602e-05
-3.23871e-05
-3.34959e-05
-3.45859e-05
-3.56564e-05
-3.67072e-05
-3.77382e-05
-3.87487e-05
-3.97359e-05
-4.0698e-05
-4.16345e-05
-4.25452e-05
-4.34298e-05
-4.42877e-05
-4.51184e-05
-4.59198e-05
-4.66901e-05
-4.74281e-05
-4.81339e-05
-4.8807e-05
-4.94469e-05
-5.00541e-05
-5.06303e-05
-5.11757e-05
-5.16887e-05
-5.21683e-05
-5.26141e-05
-5.3025e-05
-5.34005e-05
-5.37438e-05
-5.40597e-05
-5.43503e-05
-5.46141e-05
-5.48504e-05
-5.50615e-05
-5.52474e-05
-5.54057e-05
-5.55374e-05
-5.56474e-05
-5.57373e-05
-5.58057e-05
-5.58537e-05
-5.58867e-05
-5.59068e-05
-5.5911e-05
-5.58984e-05
-5.58732e-05
-5.58395e-05
-5.57974e-05
-5.57479e-05
-5.56969e-05
-5.56511e-05
-5.56116e-05
-5.55761e-05
-5.55447e-05
-5.55204e-05
-5.55033e-05
-5.54893e-05
-5.54766e-05
-5.54686e-05
-5.54697e-05
-5.54803e-05
-5.54981e-05
-5.55242e-05
-5.55633e-05
-5.56176e-05
-5.56842e-05
-5.57606e-05
-5.58501e-05
-5.59588e-05
-5.60907e-05
-5.6246e-05
-5.64254e-05
-5.6634e-05
-5.68768e-05
-5.71534e-05
-5.74593e-05
-5.77917e-05
-5.81516e-05
-5.85396e-05
-5.8952e-05
-5.93849e-05
-5.98388e-05
-6.03192e-05
-6.08301e-05
-6.13692e-05
-6.19322e-05
-6.25194e-05
-6.31352e-05
-6.37835e-05
-6.44626e-05
-6.51685e-05
-6.59012e-05
-6.66646e-05
-6.7461e-05
-6.82885e-05
-6.91433e-05
-7.00234e-05
-7.09287e-05
-7.18564e-05
-7.27983e-05
-7.37454e-05
-7.46945e-05
-7.56477e-05
-7.66074e-05
-7.75724e-05
-7.85393e-05
-7.95072e-05
-8.04781e-05
-8.14543e-05
-8.24331e-05
-8.34069e-05
-8.43676e-05
-8.53109e-05
-8.62345e-05
-8.71345e-05
-8.80033e-05
-8.88318e-05
-8.96132e-05
-9.03452e-05
-9.10286e-05
-9.16623e-05
-9.22417e-05
-9.27606e-05
-9.3215e-05
-9.36041e-05
-9.39251e-05
-9.41722e-05
-9.43389e-05
-9.44195e-05
-9.43944e-05
-9.42504e-05
-6.17372e-06
-6.15493e-06
-6.2853e-06
-6.54509e-06
-6.91819e-06
-7.38868e-06
-7.95194e-06
-8.59191e-06
-9.30531e-06
-1.00814e-05
-1.09081e-05
-1.17887e-05
-1.27138e-05
-1.36817e-05
-1.46939e-05
-1.57364e-05
-1.68042e-05
-1.78959e-05
-1.90024e-05
-2.01239e-05
-2.12607e-05
-2.24064e-05
-2.35587e-05
-2.47182e-05
-2.588e-05
-2.70394e-05
-2.81943e-05
-2.93383e-05
-3.04672e-05
-3.15806e-05
-3.2678e-05
-3.37587e-05
-3.4822e-05
-3.58671e-05
-3.68934e-05
-3.78988e-05
-3.8882e-05
-3.98426e-05
-4.07793e-05
-4.16906e-05
-4.25758e-05
-4.34356e-05
-4.42691e-05
-4.50744e-05
-4.58495e-05
-4.65933e-05
-4.73057e-05
-4.79869e-05
-4.86373e-05
-4.92579e-05
-4.9849e-05
-5.04087e-05
-5.09359e-05
-5.14315e-05
-5.18951e-05
-5.23247e-05
-5.2721e-05
-5.30883e-05
-5.343e-05
-5.37456e-05
-5.40344e-05
-5.42981e-05
-5.45374e-05
-5.47506e-05
-5.49373e-05
-5.51014e-05
-5.52451e-05
-5.53672e-05
-5.54675e-05
-5.55505e-05
-5.56194e-05
-5.56723e-05
-5.57072e-05
-5.57264e-05
-5.57343e-05
-5.5732e-05
-5.57193e-05
-5.57002e-05
-5.56814e-05
-5.56666e-05
-5.56554e-05
-5.56483e-05
-5.56478e-05
-5.56555e-05
-5.56691e-05
-5.56855e-05
-5.57058e-05
-5.5734e-05
-5.57715e-05
-5.58162e-05
-5.58673e-05
-5.59273e-05
-5.59992e-05
-5.60826e-05
-5.61746e-05
-5.62756e-05
-5.639e-05
-5.65223e-05
-5.66738e-05
-5.68456e-05
-5.70423e-05
-5.72709e-05
-5.75337e-05
-5.78276e-05
-5.81492e-05
-5.84987e-05
-5.88779e-05
-5.92844e-05
-5.97129e-05
-6.01602e-05
-6.06296e-05
-6.11253e-05
-6.16477e-05
-6.21929e-05
-6.27595e-05
-6.33511e-05
-6.39721e-05
-6.46232e-05
-6.53016e-05
-6.60054e-05
-6.67375e-05
-6.75018e-05
-6.82983e-05
-6.91239e-05
-6.99755e-05
-7.08526e-05
-7.17543e-05
-7.26756e-05
-7.36072e-05
-7.45414e-05
-7.54769e-05
-7.64166e-05
-7.73621e-05
-7.83107e-05
-7.92602e-05
-8.02116e-05
-8.11685e-05
-8.21324e-05
-8.30986e-05
-8.40577e-05
-8.5002e-05
-8.59296e-05
-8.68393e-05
-8.77259e-05
-8.85808e-05
-8.93955e-05
-9.01657e-05
-9.08908e-05
-9.15705e-05
-9.22016e-05
-9.27786e-05
-9.32979e-05
-9.37592e-05
-9.41628e-05
-9.45049e-05
-9.47771e-05
-9.49723e-05
-9.50859e-05
-9.51036e-05
-9.50151e-05
-5.77038e-06
-5.78891e-06
-5.94094e-06
-6.20206e-06
-6.57099e-06
-7.03714e-06
-7.58523e-06
-8.21216e-06
-8.90544e-06
-9.65521e-06
-1.04643e-05
-1.13224e-05
-1.22264e-05
-1.31789e-05
-1.41667e-05
-1.51859e-05
-1.62336e-05
-1.72999e-05
-1.83844e-05
-1.94881e-05
-2.06057e-05
-2.17336e-05
-2.28717e-05
-2.4015e-05
-2.51598e-05
-2.6304e-05
-2.74434e-05
-2.85728e-05
-2.96895e-05
-3.07928e-05
-3.18812e-05
-3.29538e-05
-3.40107e-05
-3.50513e-05
-3.60733e-05
-3.70748e-05
-3.80556e-05
-3.90149e-05
-3.99512e-05
-4.08635e-05
-4.17506e-05
-4.26121e-05
-4.34474e-05
-4.42556e-05
-4.50355e-05
-4.57862e-05
-4.65064e-05
-4.71963e-05
-4.78571e-05
-4.849e-05
-4.90941e-05
-4.96678e-05
-5.02105e-05
-5.07223e-05
-5.12018e-05
-5.16486e-05
-5.20656e-05
-5.24567e-05
-5.2822e-05
-5.3161e-05
-5.34751e-05
-5.37657e-05
-5.4031e-05
-5.42698e-05
-5.44855e-05
-5.46814e-05
-5.48563e-05
-5.50085e-05
-5.51413e-05
-5.52589e-05
-5.53605e-05
-5.54435e-05
-5.5509e-05
-5.55611e-05
-5.56011e-05
-5.56282e-05
-5.56449e-05
-5.56576e-05
-5.56708e-05
-5.56854e-05
-5.57016e-05
-5.57231e-05
-5.57532e-05
-5.57906e-05
-5.58322e-05
-5.58779e-05
-5.59311e-05
-5.59936e-05
-5.60636e-05
-5.61388e-05
-5.62211e-05
-5.63137e-05
-5.64165e-05
-5.65266e-05
-5.66428e-05
-5.67688e-05
-5.69091e-05
-5.70652e-05
-5.72368e-05
-5.74274e-05
-5.76443e-05
-5.78932e-05
-5.81741e-05
-5.84833e-05
-5.88202e-05
-5.91869e-05
-5.95831e-05
-6.00037e-05
-6.04439e-05
-6.09037e-05
-6.13875e-05
-6.18973e-05
-6.243e-05
-6.29822e-05
-6.35556e-05
-6.41556e-05
-6.47846e-05
-6.54406e-05
-6.61207e-05
-6.68261e-05
-6.75607e-05
-6.83265e-05
-6.91213e-05
-6.99426e-05
-7.07904e-05
-7.16647e-05
-7.25625e-05
-7.34758e-05
-7.43962e-05
-7.53193e-05
-7.62455e-05
-7.71763e-05
-7.8111e-05
-7.90465e-05
-7.99825e-05
-8.09223e-05
-8.18693e-05
-8.28231e-05
-8.37779e-05
-8.47248e-05
-8.56579e-05
-8.65755e-05
-8.74757e-05
-8.83518e-05
-8.91951e-05
-8.99988e-05
-9.07607e-05
-9.14806e-05
-9.21567e-05
-9.27851e-05
-9.33618e-05
-9.38866e-05
-9.43615e-05
-9.47866e-05
-9.51557e-05
-9.54586e-05
-9.56882e-05
-9.58404e-05
-9.59062e-05
-9.58785e-05
-5.2372e-06
-5.3094e-06
-5.48891e-06
-5.76927e-06
-6.14785e-06
-6.60779e-06
-7.15193e-06
-7.76758e-06
-8.4443e-06
-9.1837e-06
-9.97518e-06
-1.08172e-05
-1.17116e-05
-1.26447e-05
-1.3613e-05
-1.46144e-05
-1.564e-05
-1.66876e-05
-1.77572e-05
-1.88439e-05
-1.99446e-05
-2.10596e-05
-2.21847e-05
-2.33145e-05
-2.44468e-05
-2.55777e-05
-2.67027e-05
-2.78194e-05
-2.89264e-05
-3.00218e-05
-3.11033e-05
-3.21703e-05
-3.32226e-05
-3.42584e-05
-3.5276e-05
-3.62749e-05
-3.72542e-05
-3.8212e-05
-3.91476e-05
-4.00606e-05
-4.09501e-05
-4.1814e-05
-4.26516e-05
-4.3463e-05
-4.42477e-05
-4.50048e-05
-4.57334e-05
-4.64335e-05
-4.71061e-05
-4.77506e-05
-4.83662e-05
-4.89532e-05
-4.95114e-05
-5.00386e-05
-5.05332e-05
-5.09976e-05
-5.14355e-05
-5.18483e-05
-5.22352e-05
-5.25972e-05
-5.29365e-05
-5.3252e-05
-5.35414e-05
-5.38065e-05
-5.40515e-05
-5.42766e-05
-5.44794e-05
-5.46613e-05
-5.48268e-05
-5.49765e-05
-5.51074e-05
-5.52192e-05
-5.53159e-05
-5.54e-05
-5.54701e-05
-5.55263e-05
-5.55738e-05
-5.56185e-05
-5.56623e-05
-5.57051e-05
-5.57498e-05
-5.58011e-05
-5.58604e-05
-5.5925e-05
-5.59931e-05
-5.60677e-05
-5.61522e-05
-5.62456e-05
-5.63444e-05
-5.64481e-05
-5.65599e-05
-5.66821e-05
-5.68122e-05
-5.69473e-05
-5.70888e-05
-5.72411e-05
-5.74071e-05
-5.75861e-05
-5.77789e-05
-5.79917e-05
-5.82314e-05
-5.85008e-05
-5.87978e-05
-5.91212e-05
-5.94733e-05
-5.98561e-05
-6.02662e-05
-6.06973e-05
-6.11472e-05
-6.16189e-05
-6.2116e-05
-6.26378e-05
-6.318e-05
-6.37415e-05
-6.43264e-05
-6.49385e-05
-6.55769e-05
-6.62387e-05
-6.6923e-05
-6.76327e-05
-6.83714e-05
-6.91383e-05
-6.99302e-05
-7.07467e-05
-7.15903e-05
-7.24613e-05
-7.33541e-05
-7.42594e-05
-7.51703e-05
-7.60853e-05
-7.70061e-05
-7.79319e-05
-7.88589e-05
-7.97845e-05
-8.07108e-05
-8.16428e-05
-8.25827e-05
-8.35279e-05
-8.44723e-05
-8.54096e-05
-8.63359e-05
-8.7249e-05
-8.81436e-05
-8.90114e-05
-8.9845e-05
-9.06403e-05
-9.13967e-05
-9.21134e-05
-9.27877e-05
-9.34159e-05
-9.39973e-05
-9.45342e-05
-9.50292e-05
-9.54805e-05
-9.58794e-05
-9.62153e-05
-9.64815e-05
-9.66753e-05
-9.6792e-05
-9.68285e-05
-4.5998e-06
-4.72714e-06
-4.94702e-06
-5.25236e-06
-5.6413e-06
-6.11081e-06
-6.65222e-06
-7.25981e-06
-7.93508e-06
-8.66493e-06
-9.44707e-06
-1.02836e-05
-1.11633e-05
-1.20822e-05
-1.30366e-05
-1.40186e-05
-1.50269e-05
-1.60617e-05
-1.71174e-05
-1.81904e-05
-1.92804e-05
-2.03841e-05
-2.14971e-05
-2.26163e-05
-2.37382e-05
-2.48576e-05
-2.59712e-05
-2.70787e-05
-2.81778e-05
-2.92661e-05
-3.03428e-05
-3.14065e-05
-3.24549e-05
-3.34862e-05
-3.45003e-05
-3.54972e-05
-3.6475e-05
-3.74321e-05
-3.83678e-05
-3.92814e-05
-4.01721e-05
-4.10385e-05
-4.18797e-05
-4.26955e-05
-4.34855e-05
-4.4249e-05
-4.49861e-05
-4.56972e-05
-4.63817e-05
-4.70378e-05
-4.76655e-05
-4.82659e-05
-4.88378e-05
-4.93785e-05
-4.98885e-05
-5.03715e-05
-5.08294e-05
-5.12618e-05
-5.16698e-05
-5.20553e-05
-5.2418e-05
-5.27557e-05
-5.30688e-05
-5.33612e-05
-5.36341e-05
-5.38852e-05
-5.41147e-05
-5.43267e-05
-5.45229e-05
-5.47009e-05
-5.48588e-05
-5.49999e-05
-5.51274e-05
-5.52408e-05
-5.53392e-05
-5.54256e-05
-5.55053e-05
-5.55813e-05
-5.5654e-05
-5.57254e-05
-5.58002e-05
-5.58814e-05
-5.5968e-05
-5.60578e-05
-5.61524e-05
-5.62557e-05
-5.63688e-05
-5.64888e-05
-5.66136e-05
-5.67448e-05
-5.68848e-05
-5.70331e-05
-5.71869e-05
-5.7346e-05
-5.75139e-05
-5.76934e-05
-5.78842e-05
-5.80855e-05
-5.83011e-05
-5.85381e-05
-5.88012e-05
-5.90899e-05
-5.94024e-05
-5.97407e-05
-6.01084e-05
-6.05052e-05
-6.09257e-05
-6.13654e-05
-6.18254e-05
-6.23099e-05
-6.28197e-05
-6.33518e-05
-6.39039e-05
-6.44775e-05
-6.50767e-05
-6.57021e-05
-6.635e-05
-6.70182e-05
-6.77086e-05
-6.84243e-05
-6.91666e-05
-6.99334e-05
-7.07224e-05
-7.15355e-05
-7.23763e-05
-7.32436e-05
-7.41306e-05
-7.50286e-05
-7.59331e-05
-7.68444e-05
-7.7763e-05
-7.86857e-05
-7.96076e-05
-8.05266e-05
-8.14468e-05
-8.23734e-05
-8.33074e-05
-8.42449e-05
-8.51811e-05
-8.6112e-05
-8.70352e-05
-8.79467e-05
-8.88381e-05
-8.96997e-05
-9.05259e-05
-9.1316e-05
-9.20704e-05
-9.27876e-05
-9.34642e-05
-9.40981e-05
-9.46909e-05
-9.52467e-05
-9.57665e-05
-9.62453e-05
-9.66733e-05
-9.70411e-05
-9.73442e-05
-9.75805e-05
-9.775e-05
-9.78533e-05
-3.8653e-06
-4.05972e-06
-4.32028e-06
-4.64904e-06
-5.06209e-06
-5.54349e-06
-6.0891e-06
-6.7029e-06
-7.37593e-06
-8.10483e-06
-8.88854e-06
-9.7155e-06
-1.05843e-05
-1.14935e-05
-1.24333e-05
-1.34015e-05
-1.43987e-05
-1.5421e-05
-1.64649e-05
-1.75294e-05
-1.86114e-05
-1.97059e-05
-2.081e-05
-2.19205e-05
-2.30323e-05
-2.41419e-05
-2.52483e-05
-2.63496e-05
-2.74426e-05
-2.85262e-05
-2.95998e-05
-3.06602e-05