/*--------------------------------*- C++ -*----------------------------------*\
  =========                 |
  \\      /  F ield         | OpenFOAM: The Open Source CFD Toolbox
   \\    /   O peration     | Website:  https://openfoam.org
    \\  /    A nd           | Version:  7
     \\/     M anipulation  |
\*---------------------------------------------------------------------------*/
FoamFile
{
    version     2.0;
    format      ascii;
    class       surfaceScalarField;
    location    "0.175";
    object      phi;
}
// * * * * * * * * * * * * * * * * * * * * * * * * * * * * * * * * * * * * * //

dimensions      [0 3 -1 0 0 0 0];

internalField   nonuniform List<scalar> 
101920
(
-5.20791e-15
-3.85651e-14
9.75044e-13
-9.77964e-13
2.85044e-12
-1.879e-12
4.54063e-12
-1.6857e-12
5.76713e-12
-1.22794e-12
6.62095e-12
-8.52976e-13
7.22238e-12
-5.99623e-13
7.63953e-12
-4.17963e-13
7.91689e-12
-2.75352e-13
8.06735e-12
-1.49058e-13
8.09512e-12
-2.80843e-14
8.00441e-12
9.1872e-14
7.79132e-12
2.13623e-13
7.45164e-12
3.39294e-13
6.98587e-12
4.66137e-13
6.38995e-12
5.97846e-13
5.66594e-12
7.23127e-13
4.81604e-12
8.50801e-13
3.8404e-12
9.75026e-13
2.74339e-12
1.09715e-12
1.52669e-12
1.21745e-12
1.93676e-13
1.33232e-12
-1.24926e-12
1.44341e-12
-2.79897e-12
1.5501e-12
-4.44819e-12
1.64955e-12
-6.19124e-12
1.74475e-12
-8.02486e-12
1.83313e-12
-9.94165e-12
1.91578e-12
-1.19368e-11
1.9946e-12
-1.40048e-11
2.06627e-12
-1.61369e-11
2.13223e-12
-1.83282e-11
2.19133e-12
-2.05717e-11
2.24162e-12
-2.28594e-11
2.2867e-12
-2.51887e-11
2.32669e-12
-2.75532e-11
2.3612e-12
-2.99462e-11
2.39178e-12
-3.23638e-11
2.41595e-12
-3.47977e-11
2.43235e-12
-3.72402e-11
2.44253e-12
-3.9689e-11
2.44816e-12
-4.21383e-11
2.44852e-12
-4.45816e-11
2.44415e-12
-4.70165e-11
2.43544e-12
-4.94373e-11
2.42111e-12
-5.18363e-11
2.40085e-12
-5.42107e-11
2.37647e-12
-5.65575e-11
2.34796e-12
-5.88697e-11
2.31382e-12
-6.11433e-11
2.27463e-12
-6.33767e-11
2.23192e-12
-6.55648e-11
2.18622e-12
-6.77039e-11
2.13774e-12
-6.97928e-11
2.08746e-12
-7.18278e-11
2.03453e-12
-7.38028e-11
1.97622e-12
-7.5715e-11
1.91244e-12
-7.75629e-11
1.84664e-12
-7.93436e-11
1.78034e-12
-8.10546e-11
1.71145e-12
-8.26941e-11
1.63965e-12
-8.42593e-11
1.56639e-12
-8.5748e-11
1.4902e-12
-8.71582e-11
1.40991e-12
-8.84886e-11
1.32864e-12
-8.9738e-11
1.24834e-12
-9.09049e-11
1.16641e-12
-9.19866e-11
1.0815e-12
-9.2982e-11
9.95876e-13
-9.38914e-11
9.10025e-13
-9.47136e-11
8.2183e-13
-9.54457e-11
7.31523e-13
-9.60865e-11
6.41608e-13
-9.66374e-11
5.52279e-13
-9.70987e-11
4.61569e-13
-9.74688e-11
3.69426e-13
-9.77476e-11
2.77767e-13
-9.79355e-11
1.86951e-13
-9.80314e-11
9.52213e-14
-9.80334e-11
2.11109e-15
-9.79419e-11
-9.12085e-14
-9.77593e-11
-1.82986e-13
-9.74863e-11
-2.73855e-13
-9.71218e-11
-3.64574e-13
-9.66662e-11
-4.54881e-13
-9.61214e-11
-5.44284e-13
-9.54886e-11
-6.33245e-13
-9.47667e-11
-7.22407e-13
-9.39553e-11
-8.11087e-13
-9.30567e-11
-8.97997e-13
-9.20732e-11
-9.83158e-13
-9.10057e-11
-1.06761e-12
-8.98547e-11
-1.15153e-12
-8.86219e-11
-1.23354e-12
-8.731e-11
-1.31249e-12
-8.59208e-11
-1.38918e-12
-8.44553e-11
-1.46516e-12
-8.2915e-11
-1.54016e-12
-8.13031e-11
-1.61238e-12
-7.96225e-11
-1.68099e-12
-7.78747e-11
-1.74726e-12
-7.60611e-11
-1.81236e-12
-7.41842e-11
-1.87568e-12
-7.22478e-11
-1.93583e-12
-7.02561e-11
-1.99222e-12
-6.82117e-11
-2.04527e-12
-6.6117e-11
-2.09521e-12
-6.39749e-11
-2.14152e-12
-6.17891e-11
-2.1843e-12
-5.95639e-11
-2.22437e-12
-5.73028e-11
-2.26148e-12
-5.50096e-11
-2.29405e-12
-5.2689e-11
-2.32084e-12
-5.03457e-11
-2.34238e-12
-4.79841e-11
-2.36023e-12
-4.56083e-11
-2.37468e-12
-4.3223e-11
-2.38452e-12
-4.08342e-11
-2.38865e-12
-3.84478e-11
-2.38712e-12
-3.60684e-11
-2.38068e-12
-3.37001e-11
-2.36935e-12
-3.13477e-11
-2.35245e-12
-2.90169e-11
-2.32993e-12
-2.67142e-11
-2.3022e-12
-2.44453e-11
-2.26918e-12
-2.22154e-11
-2.2304e-12
-2.00308e-11
-2.18507e-12
-1.78983e-11
-2.13288e-12
-1.58242e-11
-2.07469e-12
-1.38139e-11
-2.01105e-12
-1.18727e-11
-1.94124e-12
-1.00073e-11
-1.86458e-12
-8.22536e-12
-1.7811e-12
-6.53323e-12
-1.69163e-12
-4.93597e-12
-1.59732e-12
-3.4384e-12
-1.49831e-12
-2.04559e-12
-1.39344e-12
-7.63813e-13
-1.28176e-12
4.00531e-13
-1.16382e-12
1.44312e-12
-1.04151e-12
2.36051e-12
-9.1636e-13
3.14868e-12
-7.88133e-13
3.80419e-12
-6.5627e-13
4.32499e-12
-5.21655e-13
4.70998e-12
-3.85812e-13
4.95932e-12
-2.49704e-13
5.07394e-12
-1.14241e-13
5.05499e-12
1.94926e-14
4.90644e-12
1.49002e-13
4.63469e-12
2.71864e-13
4.24922e-12
3.84735e-13
3.76294e-12
4.84981e-13
3.19305e-12
5.69134e-13
2.56237e-12
6.3083e-13
1.9019e-12
6.60898e-13
1.25374e-12
6.48501e-13
6.71972e-13
5.81676e-13
2.24658e-13
4.46671e-13
-7.29781e-15
2.31645e-13
-7.13191e-15
-4.79873e-13
4.43617e-13
2.24863e-13
-1.68022e-12
2.3814e-12
-4.03682e-12
4.90923e-12
-4.21158e-12
7.26788e-12
-3.59003e-12
9.30088e-12
-2.88489e-12
1.0963e-11
-2.26296e-12
1.2262e-11
-1.71713e-12
1.32026e-11
-1.22009e-12
1.37892e-11
-7.34698e-13
1.4012e-11
-2.516e-13
1.38667e-11
2.36887e-13
1.33429e-11
7.36871e-13
1.24406e-11
1.24008e-12
1.11538e-11
1.75314e-12
9.48619e-12
2.26346e-12
7.43862e-12
2.77299e-12
5.01379e-12
3.27454e-12
2.22194e-12
3.7666e-12
-9.30316e-13
4.24963e-12
-4.43162e-12
4.7174e-12
-8.26739e-12
5.16922e-12
-1.24279e-11
5.60266e-12
-1.6896e-11
6.01542e-12
-2.16562e-11
6.40912e-12
-2.66948e-11
6.78176e-12
-3.19924e-11
7.13162e-12
-3.75336e-11
7.45946e-12
-4.33021e-11
7.7623e-12
-4.92763e-11
8.0414e-12
-5.54415e-11
8.29744e-12
-6.1779e-11
8.52825e-12
-6.82687e-11
8.73507e-12
-7.48965e-11
8.91802e-12
-8.16434e-11
9.07658e-12
-8.84902e-11
9.21245e-12
-9.54222e-11
9.32602e-12
-1.02421e-10
9.41601e-12
-1.09468e-10
9.48234e-12
-1.1655e-10
9.52602e-12
-1.23651e-10
9.54862e-12
-1.30752e-10
9.55039e-12
-1.37841e-10
9.53254e-12
-1.44903e-10
9.4953e-12
-1.51921e-10
9.43778e-12
-1.58883e-10
9.36049e-12
-1.65777e-10
9.26599e-12
-1.72586e-10
9.15492e-12
-1.79299e-10
9.0265e-12
-1.85907e-10
8.88233e-12
-1.92396e-10
8.72357e-12
-1.98755e-10
8.54885e-12
-2.04974e-10
8.35912e-12
-2.11045e-10
8.15781e-12
-2.16954e-10
7.94453e-12
-2.22693e-10
7.71658e-12
-2.28256e-10
7.47562e-12
-2.33632e-10
7.22486e-12
-2.38814e-10
6.96333e-12
-2.43796e-10
6.69077e-12
-2.48569e-10
6.41088e-12
-2.53127e-10
6.12409e-12
-2.57465e-10
5.82728e-12
-2.61576e-10
5.52129e-12
-2.65454e-10
5.20954e-12
-2.69096e-10
4.89167e-12
-2.72497e-10
4.56628e-12
-2.75653e-10
4.23559e-12
-2.78558e-10
3.90174e-12
-2.81211e-10
3.56309e-12
-2.83609e-10
3.21801e-12
-2.85747e-10
2.86849e-12
-2.87624e-10
2.5172e-12
-2.89237e-10
2.16435e-12
-2.90584e-10
1.80899e-12
-2.91664e-10
1.45137e-12
-2.92477e-10
1.09243e-12
-2.93022e-10
7.32351e-13
-2.93297e-10
3.70632e-13
-2.93302e-10
7.83994e-15
-2.93038e-10
-3.54316e-13
-2.92505e-10
-7.1514e-13
-2.91705e-10
-1.07484e-12
-2.90637e-10
-1.43311e-12
-2.89304e-10
-1.78896e-12
-2.87708e-10
-2.14202e-12
-2.85848e-10
-2.49293e-12
-2.83729e-10
-2.84193e-12
-2.81354e-10
-3.18753e-12
-2.78726e-10
-3.52761e-12
-2.75847e-10
-3.86206e-12
-2.7272e-10
-4.19247e-12
-2.69351e-10
-4.51909e-12
-2.65744e-10
-4.83988e-12
-2.61903e-10
-5.15299e-12
-2.57833e-10
-5.45862e-12
-2.5354e-10
-5.75769e-12
-2.4903e-10
-6.04954e-12
-2.44309e-10
-6.33263e-12
-2.39384e-10
-6.60638e-12
-2.34261e-10
-6.8712e-12
-2.28949e-10
-7.12666e-12
-2.23454e-10
-7.37103e-12
-2.17785e-10
-7.60347e-12
-2.11949e-10
-7.82483e-12
-2.05958e-10
-8.03547e-12
-1.99819e-10
-8.23376e-12
-1.93544e-10
-8.41744e-12
-1.87142e-10
-8.58604e-12
-1.80624e-10
-8.74092e-12
-1.74001e-10
-8.88216e-12
-1.67285e-10
-9.00779e-12
-1.60489e-10
-9.11605e-12
-1.53625e-10
-9.20673e-12
-1.46707e-10
-9.28021e-12
-1.39747e-10
-9.33587e-12
-1.32759e-10
-9.37218e-12
-1.25758e-10
-9.38854e-12
-1.18758e-10
-9.38561e-12
-1.11774e-10
-9.36372e-12
-1.04822e-10
-9.32193e-12
-9.7917e-11
-9.25842e-12
-9.10761e-11
-9.17235e-12
-8.43153e-11
-9.06427e-12
-7.76512e-11
-8.93425e-12
-7.11006e-11
-8.7814e-12
-6.4681e-11
-8.60501e-12
-5.84094e-11
-8.40475e-12
-5.23028e-11
-8.1809e-12
-4.63792e-11
-7.93411e-12
-4.06566e-11
-7.66411e-12
-3.51522e-11
-7.36986e-12
-2.98829e-11
-7.05119e-12
-2.48651e-11
-6.7092e-12
-2.01148e-11
-6.34576e-12
-1.56492e-11
-5.96218e-12
-1.14843e-11
-5.55816e-12
-7.63382e-12
-5.13298e-12
-4.11114e-12
-4.68756e-12
-9.28848e-13
-4.22443e-12
1.90173e-12
-3.74663e-12
4.37074e-12
-3.25653e-12
6.47057e-12
-2.75564e-12
8.19591e-12
-2.24633e-12
9.54323e-12
-1.73286e-12
1.05121e-11
-1.2198e-12
1.1107e-11
-7.11062e-13
1.13366e-11
-2.11581e-13
1.12144e-11
2.70963e-13
1.07603e-11
7.26871e-13
1.00012e-11
1.1448e-12
8.97348e-12
1.51251e-12
7.72559e-12
1.81581e-12
6.31967e-12
2.0358e-12
4.83248e-12
2.14755e-12
3.3587e-12
2.12191e-12
2.01255e-12
1.92777e-12
9.24177e-13
1.53491e-12
2.25535e-13
9.30172e-13
2.18601e-13
-9.80438e-13
1.42045e-12
-9.38695e-13
-1.72334e-12
5.86341e-13
-5.56432e-12
2.95207e-12
-6.57318e-12
5.56789e-12
-6.2042e-12
8.08801e-12
-5.40398e-12
1.03074e-11
-4.47999e-12
1.2116e-11
-3.52551e-12
1.34413e-11
-2.54062e-12
1.42355e-11
-1.5305e-12
1.44702e-11
-4.84869e-13
1.41174e-11
5.90303e-13
1.31655e-11
1.68982e-12
1.15996e-11
2.80776e-12
9.41549e-12
3.93568e-12
6.61649e-12
5.06404e-12
3.20254e-12
6.18595e-12
-8.14367e-13
7.29196e-12
-5.42475e-12
8.37793e-12
-1.06143e-11
9.43826e-12
-1.63631e-11
1.04677e-11
-2.2654e-11
1.14604e-11
-2.94649e-11
1.24142e-11
-3.6771e-11
1.33234e-11
-4.45504e-11
1.41872e-11
-5.27752e-11
1.50052e-11
-6.1418e-11
1.57742e-11
-7.04534e-11
1.64929e-11
-7.9852e-11
1.71613e-11
-8.95858e-11
1.77756e-11
-9.96279e-11
1.83363e-11
-1.09947e-10
1.88454e-11
-1.20515e-10
1.93005e-11
-1.31305e-10
1.97033e-11
-1.42285e-10
2.00557e-11
-1.5343e-10
2.0356e-11
-1.64711e-10
2.06048e-11
-1.76099e-10
2.08041e-11
-1.87569e-10
2.09525e-11
-1.99095e-10
2.10513e-11
-2.10649e-10
2.11037e-11
-2.22208e-10
2.11106e-11
-2.33747e-10
2.10718e-11
-2.45239e-10
2.09901e-11
-2.56664e-10
2.08656e-11
-2.68e-10
2.06979e-11
-2.79224e-10
2.04906e-11
-2.90313e-10
2.02452e-11
-3.01251e-10
1.99619e-11
-3.12016e-10
1.96439e-11
-3.22587e-10
1.92937e-11
-3.32949e-10
1.89101e-11
-3.43085e-10
1.84949e-11
-3.52977e-10
1.80506e-11
-3.62608e-10
1.75765e-11
-3.71967e-10
1.70734e-11
-3.81037e-10
1.65452e-11
-3.89804e-10
1.59932e-11
-3.98257e-10
1.5417e-11
-4.06383e-10
1.48184e-11
-4.14171e-10
1.42002e-11
-4.2161e-10
1.35622e-11
-4.2869e-10
1.29048e-11
-4.35401e-10
1.22311e-11
-4.41734e-10
1.15428e-11
-4.47681e-10
1.08388e-11
-4.53235e-10
1.01203e-11
-4.58389e-10
9.39009e-12
-4.63137e-10
8.64924e-12
-4.67472e-10
7.89744e-12
-4.71388e-10
7.13523e-12
-4.74882e-10
6.36406e-12
-4.7795e-10
5.58544e-12
-4.80588e-10
4.80087e-12
-4.82792e-10
4.01169e-12
-4.8456e-10
3.21878e-12
-4.85891e-10
2.42259e-12
-4.86782e-10
1.62332e-12
-4.87232e-10
8.21529e-13
-4.87244e-10
1.87676e-14
-4.86816e-10
-7.83063e-13
-4.85948e-10
-1.58317e-12
-4.84641e-10
-2.38115e-12
-4.82897e-10
-3.17611e-12
-4.80721e-10
-3.96646e-12
-4.78112e-10
-4.7511e-12
-4.75074e-10
-5.53005e-12
-4.71612e-10
-6.30318e-12
-4.67731e-10
-7.06877e-12
-4.63435e-10
-7.82441e-12
-4.58729e-10
-8.56913e-12
-4.53618e-10
-9.30333e-12
-4.48112e-10
-1.00263e-11
-4.42215e-10
-1.07362e-11
-4.35936e-10
-1.14315e-11
-4.29283e-10
-1.21118e-11
-4.22265e-10
-1.27762e-11
-4.14892e-10
-1.34228e-11
-4.07174e-10
-1.405e-11
-3.9912e-10
-1.46578e-11
-3.90744e-10
-1.52463e-11
-3.82057e-10
-1.58135e-11
-3.73073e-10
-1.63567e-11
-3.63803e-10
-1.68739e-11
-3.54263e-10
-1.73654e-11
-3.44466e-10
-1.78311e-11
-3.34428e-10
-1.82693e-11
-3.24167e-10
-1.86777e-11
-3.13699e-10
-1.90547e-11
-3.03042e-10
-1.93995e-11
-2.92213e-10
-1.97111e-11
-2.81231e-10
-1.99875e-11
-2.70117e-10
-2.02276e-11
-2.58892e-10
-2.04308e-11
-2.47575e-10
-2.0596e-11
-2.36189e-10
-2.07216e-11
-2.24757e-10
-2.08052e-11
-2.13302e-10
-2.08452e-11
-2.01846e-10
-2.08417e-11
-1.90415e-10
-2.07945e-11
-1.79034e-10
-2.07025e-11
-1.67728e-10
-2.0564e-11
-1.56524e-10
-2.03776e-11
-1.45447e-10
-2.0142e-11
-1.34525e-10
-1.98571e-11
-1.23784e-10
-1.9522e-11
-1.13254e-10
-1.91358e-11
-1.02962e-10
-1.86982e-11
-9.29339e-11
-1.82093e-11
-8.31977e-11
-1.76694e-11
-7.37821e-11
-1.70786e-11
-6.47154e-11
-1.64365e-11
-5.60241e-11
-1.57432e-11
-4.77343e-11
-1.49999e-11
-3.98718e-11
-1.42085e-11
-3.24621e-11
-1.33712e-11
-2.55295e-11
-1.24896e-11
-1.90965e-11
-1.15648e-11
-1.31839e-11
-1.05994e-11
-7.81087e-12
-9.5975e-12
-2.99489e-12
-8.56357e-12
1.2494e-12
-7.50204e-12
4.91119e-12
-6.41818e-12
7.98342e-12
-5.31856e-12
1.04624e-11
-4.21126e-12
1.23491e-11
-3.1059e-12
1.3651e-11
-2.01293e-12
1.43828e-11
-9.44246e-13
1.45677e-11
8.48491e-14
1.42378e-11
1.05566e-12
1.34361e-11
1.94577e-12
1.22194e-11
2.7295e-12
1.06593e-11
3.37648e-12
8.84472e-12
3.85042e-12
6.88392e-12
4.10788e-12
4.90583e-12
4.09946e-12
3.05926e-12
3.77412e-12
1.50982e-12
3.08442e-12
4.32391e-13
2.00777e-12
6.51126e-13
-5.37922e-13
1.96289e-12
-4.0084e-13
-1.85855e-12
8.435e-13
-6.8045e-12
2.90429e-12
-8.63709e-12
5.34909e-12
-8.64975e-12
7.81009e-12
-7.86341e-12
1.00211e-11
-6.69293e-12
1.17995e-11
-5.30219e-12
1.30171e-11
-3.75977e-12
1.35872e-11
-2.09958e-12
1.34449e-11
-3.43513e-13
1.25476e-11
1.48724e-12
1.08658e-11
3.37314e-12
8.37541e-12
5.29705e-12
5.07366e-12
7.23934e-12
9.49891e-13
9.18678e-12
-3.98845e-12
1.11238e-11
-9.73192e-12
1.30364e-11
-1.62691e-11
1.49138e-11
-2.3577e-11
1.6747e-11
-3.16357e-11
1.85255e-11
-4.04207e-11
2.02439e-11
-4.98998e-11
2.18942e-11
-6.00466e-11
2.34702e-11
-7.08279e-11
2.49693e-11
-8.22072e-11
2.6386e-11
-9.41521e-11
2.77176e-11
-1.06623e-10
2.89639e-11
-1.19582e-10
3.01208e-11
-1.32993e-10
3.11869e-11
-1.46818e-10
3.21633e-11
-1.61017e-10
3.30471e-11
-1.75555e-10
3.38381e-11
-1.9039e-10
3.45391e-11
-2.05483e-10
3.51492e-11
-2.20796e-10
3.5669e-11
-2.36292e-10
3.61015e-11
-2.51934e-10
3.64468e-11
-2.67686e-10
3.67043e-11
-2.83513e-10
3.68779e-11
-2.99378e-10
3.69691e-11
-3.15248e-10
3.69788e-11
-3.31088e-10
3.69107e-11
-3.46866e-10
3.67675e-11
-3.62551e-10
3.65491e-11
-3.78112e-10
3.62585e-11
-3.93519e-10
3.58993e-11
-4.08744e-10
3.54719e-11
-4.23761e-10
3.4979e-11
-4.3854e-10
3.44248e-11
-4.53057e-10
3.38105e-11
-4.67287e-10
3.31383e-11
-4.81204e-10
3.24129e-11
-4.94788e-10
3.16353e-11
-5.08017e-10
3.08057e-11
-5.20871e-10
2.99277e-11
-5.3333e-10
2.90046e-11
-5.45376e-10
2.80375e-11
-5.56989e-10
2.70293e-11
-5.68154e-10
2.59838e-11
-5.78854e-10
2.49022e-11
-5.89077e-10
2.3785e-11
-5.98807e-10
2.26351e-11
-6.08031e-10
2.14558e-11
-6.16738e-10
2.02484e-11
-6.24915e-10
1.90144e-11
-6.3255e-10
1.77563e-11
-6.39636e-10
1.64766e-11
-6.46165e-10
1.51765e-11
-6.52126e-10
1.38577e-11
-6.57514e-10
1.25223e-11
-6.62321e-10
1.11719e-11
-6.66542e-10
9.8077e-12
-6.70172e-10
8.43176e-12
-6.73206e-10
7.04659e-12
-6.75642e-10
5.6544e-12
-6.77476e-10
4.25649e-12
-6.78706e-10
2.85364e-12
-6.79331e-10
1.4471e-12
-6.79352e-10
3.91228e-14
-6.78768e-10
-1.36778e-12
-6.7758e-10
-2.77201e-12
-6.75789e-10
-4.17252e-12
-6.73397e-10
-5.56774e-12
-6.70409e-10
-6.95541e-12
-6.66827e-10
-8.33369e-12
-6.62655e-10
-9.70155e-12
-6.57901e-10
-1.10576e-11
-6.5257e-10
-1.23996e-11
-6.46667e-10
-1.37256e-11
-6.40202e-10
-1.50344e-11
-6.33181e-10
-1.63246e-11
-6.25614e-10
-1.75935e-11
-6.17511e-10
-1.88388e-11
-6.08883e-10
-2.00593e-11
-5.99741e-10
-2.1254e-11
-5.90097e-10
-2.24205e-11
-5.79964e-10
-2.35559e-11
-5.69357e-10
-2.46578e-11
-5.5829e-10
-2.57254e-11
-5.46778e-10
-2.67573e-11
-5.34839e-10
-2.77511e-11
-5.22491e-10
-2.8704e-11
-5.09751e-10
-2.96138e-11
-4.96639e-10
-3.04785e-11
-4.83174e-10
-3.12959e-11
-4.69379e-10
-3.20633e-11
-4.55275e-10
-3.27791e-11
-4.40888e-10
-3.34416e-11
-4.26239e-10
-3.40484e-11
-4.11354e-10
-3.45965e-11
-3.96258e-10
-3.50828e-11
-3.8098e-10
-3.55056e-11
-3.65547e-10
-3.58634e-11
-3.49988e-10
-3.61542e-11
-3.34332e-10
-3.63757e-11
-3.1861e-10
-3.65253e-11
-3.02855e-10
-3.66009e-11
-2.87098e-10
-3.66004e-11
-2.71371e-10
-3.65223e-11
-2.5571e-10
-3.63644e-11
-2.40149e-10
-3.6125e-11
-2.24724e-10
-3.58029e-11
-2.0947e-10
-3.53963e-11
-1.94423e-10
-3.4904e-11
-1.7962e-10
-3.43247e-11
-1.651e-10
-3.3657e-11
-1.50898e-10
-3.29004e-11
-1.37053e-10
-3.2055e-11
-1.23602e-10
-3.11212e-11
-1.10581e-10
-3.00994e-11
-9.80271e-11
-2.89897e-11
-8.59767e-11
-2.77928e-11
-7.4465e-11
-2.65109e-11
-6.35271e-11
-2.51465e-11
-5.31968e-11
-2.37023e-11
-4.35054e-11
-2.21813e-11
-3.44817e-11
-2.05879e-11
-2.61532e-11
-1.89271e-11
-1.8545e-11
-1.72051e-11
-1.16792e-11
-1.54291e-11
-5.57436e-12
-1.36072e-11
-2.44236e-13
-1.17488e-11
4.30228e-12
-9.86569e-12
8.06182e-12
-7.97192e-12
1.10385e-11
-6.08329e-12
1.3244e-11
-4.21805e-12
1.46979e-11
-2.39758e-12
1.54301e-11
-6.47473e-13
1.54834e-11
1.00168e-12
1.49137e-11
2.51432e-12
1.37929e-11
3.84954e-12
1.22105e-11
4.95918e-12
1.02744e-11
5.78694e-12
8.1131e-12
6.2688e-12
5.87751e-12
6.33453e-12
3.74057e-12
5.9111e-12
1.89646e-12
4.9287e-12
5.64041e-13
3.34028e-12
1.21511e-12
4.41621e-14
1.91731e-12
5.52847e-13
-2.37079e-12
1.75574e-12
-8.00582e-12
3.56538e-12
-1.04473e-11
5.69515e-12
-1.07788e-11
7.82621e-12
-9.99447e-12
9.69278e-12
-8.55837e-12
1.10824e-11
-6.69251e-12
1.18419e-11
-4.5176e-12
1.18521e-11
-2.10825e-12
1.10264e-11
4.81243e-13
9.30519e-12
3.20873e-12
6.63987e-12
6.03692e-12
3.00779e-12
8.93061e-12
-1.61433e-12
1.18617e-11
-7.22966e-12
1.48025e-11
-1.38362e-11
1.7731e-11
-2.14281e-11
2.06269e-11
-2.9986e-11
2.34732e-11
-3.94898e-11
2.62519e-11
-4.9916e-11
2.89512e-11
-6.12305e-11
3.15588e-11
-7.34011e-11
3.40638e-11
-8.63922e-11
3.64601e-11
-1.00161e-10
3.8739e-11
-1.14669e-10
4.08941e-11
-1.29874e-10
4.29223e-11
-1.45728e-10
4.48181e-11
-1.62188e-10
4.65781e-11
-1.79205e-10
4.82025e-11
-1.9673e-10
4.96887e-11
-2.1472e-10
5.10351e-11
-2.33124e-10
5.22432e-11
-2.51897e-10
5.33119e-11
-2.7099e-10
5.42413e-11
-2.90355e-10
5.50343e-11
-3.09945e-10
5.56927e-11
-3.29715e-10
5.62161e-11
-3.49619e-10
5.66088e-11
-3.69612e-10
5.68731e-11
-3.89653e-10
5.70099e-11
-4.09697e-10
5.70231e-11
-4.29701e-10
5.6917e-11
-4.49627e-10
5.6693e-11
-4.69434e-10
5.63548e-11
-4.89083e-10
5.59074e-11
-5.08537e-10
5.53528e-11
-5.27762e-10
5.46947e-11
-5.4672e-10
5.39382e-11
-5.6538e-10
5.30857e-11
-5.8371e-10
5.21398e-11
-6.01678e-10
5.1106e-11
-6.19253e-10
4.99882e-11
-6.36407e-10
4.87887e-11
-6.53113e-10
4.75118e-11
-6.69345e-10
4.61615e-11
-6.8508e-10
4.47401e-11
-7.00293e-10
4.32507e-11
-7.14963e-10
4.16983e-11
-7.29067e-10
4.00872e-11
-7.42585e-10
3.84193e-11
-7.55498e-10
3.6698e-11
-7.67789e-10
3.49274e-11
-7.79443e-10
3.31101e-11
-7.90443e-10
3.12482e-11
-8.00776e-10
2.93459e-11
-8.10426e-10
2.74068e-11
-8.19382e-10
2.54331e-11
-8.27633e-10
2.34273e-11
-8.35168e-10
2.13926e-11
-8.41978e-10
1.93324e-11
-8.48057e-10
1.72493e-11
-8.53395e-10
1.51454e-11
-8.57986e-10
1.30234e-11
-8.61825e-10
1.08865e-11
-8.64909e-10
8.73774e-12
-8.67232e-10
6.57957e-12
-8.68793e-10
4.41414e-12
-8.69589e-10
2.24395e-12
-8.69622e-10
7.1785e-14
-8.6889e-10
-2.09951e-12
-8.67395e-10
-4.26735e-12
-8.65139e-10
-6.42917e-12
-8.62125e-10
-8.58212e-12
-8.58356e-10
-1.07238e-11
-8.53837e-10
-1.28523e-11
-8.48574e-10
-1.49649e-11
-8.42574e-10
-1.70582e-11
-8.35845e-10
-1.91291e-11
-8.28394e-10
-2.11758e-11
-8.20232e-10
-2.31965e-11
-8.11369e-10
-2.5188e-11
-8.01817e-10
-2.71464e-11
-7.91587e-10
-2.90689e-11
-7.80693e-10
-3.09534e-11
-7.69149e-10
-3.27973e-11
-7.56972e-10
-3.4597e-11
-7.44178e-10
-3.63492e-11
-7.30784e-10
-3.80515e-11
-7.16809e-10
-3.9701e-11
-7.02274e-10
-4.1294e-11
-6.87198e-10
-4.28267e-11
-6.71604e-10
-4.42964e-11
-6.55516e-10
-4.57011e-11
-6.38958e-10
-4.70369e-11
-6.21955e-10
-4.82992e-11
-6.04534e-10
-4.94842e-11
-5.86724e-10
-5.05893e-11
-5.68552e-10
-5.16121e-11
-5.50051e-10
-5.25489e-11
-5.31251e-10
-5.33956e-11
-5.12185e-10
-5.41484e-11
-4.92886e-10
-5.48042e-11
-4.7339e-10
-5.53599e-11
-4.53732e-10
-5.58118e-11
-4.33951e-10
-5.61562e-11
-4.14085e-10
-5.63905e-11
-3.94173e-10
-5.65121e-11
-3.74256e-10
-5.65181e-11
-3.54374e-10
-5.64046e-11
-3.34571e-10
-5.61687e-11
-3.14889e-10
-5.58074e-11
-2.95373e-10
-5.5319e-11
-2.76068e-10
-5.47019e-11
-2.57018e-10
-5.39539e-11
-2.3827e-10
-5.30732e-11
-2.19869e-10
-5.20583e-11
-2.0186e-10
-5.09085e-11
-1.84291e-10
-4.96239e-11
-1.67209e-10
-4.82045e-11
-1.50659e-10
-4.66506e-11
-1.34685e-10
-4.49633e-11
-1.19332e-10
-4.31451e-11
-1.04643e-10
-4.11988e-11
-9.06602e-11
-3.91281e-11
-7.74254e-11
-3.6937e-11
-6.49767e-11
-3.46303e-11
-5.33495e-11
-3.22149e-11
-4.25772e-11
-2.96995e-11
-3.26891e-11
-2.70934e-11
-2.3711e-11
-2.44071e-11
-1.56645e-11
-2.16533e-11
-8.56566e-12
-1.88471e-11
-2.42434e-12
-1.60069e-11
2.75617e-12
-1.31533e-11
6.98107e-12
-1.03098e-11
1.02657e-11
-7.50349e-12
1.26353e-11
-4.76694e-12
1.41261e-11
-2.13815e-12
1.47885e-11
3.39215e-13
1.46878e-11
2.61481e-12
1.39063e-11
4.63045e-12
1.25458e-11
6.31932e-12
1.07277e-11
7.60491e-12
8.59517e-12
8.40131e-12
6.31388e-12
8.61565e-12
4.07444e-12
8.1508e-12
2.09472e-12
6.90853e-12
6.3105e-13
4.80372e-12
1.84591e-12
4.28091e-13
1.49005e-12
1.2601e-12
-3.20175e-12
2.47284e-12
-9.21763e-12
4.05556e-12
-1.20285e-11
5.80882e-12
-1.25322e-11
7.4703e-12
-1.16566e-11
8.79433e-12
-9.88084e-12
9.56778e-12
-7.46642e-12
9.6259e-12
-4.57563e-12
8.83386e-12
-1.31756e-12
7.09528e-12
2.2221e-12
4.33046e-12
5.97316e-12
4.88596e-13
9.87932e-12
-4.47036e-12
1.389e-11
-1.05692e-11
1.79592e-11
-1.78156e-11
2.20505e-11
-2.62142e-11
2.61286e-11
-3.57528e-11
3.01661e-11
-4.64156e-11
3.41364e-11
-5.8182e-11
3.80175e-11
-7.10192e-11
4.17903e-11
-8.48954e-11
4.54355e-11
-9.97731e-11
4.89413e-11
-1.15607e-10
5.22949e-11
-1.32354e-10
5.54853e-11
-1.49966e-10
5.85058e-11
-1.6839e-10
6.13484e-11
-1.87578e-10
6.4006e-11
-2.07476e-10
6.6476e-11
-2.28027e-10
6.87548e-11
-2.49178e-10
7.08386e-11
-2.70872e-10
7.27284e-11
-2.93051e-10
7.44234e-11
-3.15662e-10
7.59221e-11
-3.38648e-10
7.7227e-11
-3.61952e-10
7.834e-11
-3.85521e-10
7.92612e-11
-4.093e-10
7.99941e-11
-4.33233e-10
8.05429e-11
-4.5727e-10
8.09089e-11
-4.81357e-10
8.10968e-11
-5.05444e-10
8.11114e-11
-5.29483e-10
8.09558e-11
-5.53424e-10
8.06339e-11
-5.77219e-10
8.0152e-11
-6.00825e-10
7.95137e-11
-6.24196e-10
7.87233e-11
-6.47289e-10
7.77878e-11
-6.70063e-10
7.67117e-11
-6.92477e-10
7.54991e-11
-7.14493e-10
7.41562e-11
-7.36074e-10
7.26883e-11
-7.57186e-10
7.10991e-11
-7.77793e-10
6.93944e-11
-7.97861e-10
6.75804e-11
-8.17361e-10
6.56615e-11
-8.36263e-10
6.36417e-11
-8.54538e-10
6.15268e-11
-8.72161e-10
5.93223e-11
-8.89106e-10
5.7032e-11
-9.05348e-10
5.46606e-11
-9.20864e-10
5.22142e-11
-9.35634e-10
4.96974e-11
-9.49637e-10
4.71132e-11
-9.62856e-10
4.44663e-11
-9.75272e-10
4.1762e-11
-9.8687e-10
3.90045e-11
-9.97636e-10
3.61975e-11
-1.00755e-09
3.33452e-11
-1.01661e-09
3.04518e-11
-1.0248e-09
2.75211e-11
-1.03211e-09
2.45573e-11
-1.03853e-09
2.15643e-11
-1.04405e-09
1.8546e-11
-1.04867e-09
1.55063e-11
-1.05238e-09
1.2449e-11
-1.05518e-09
9.37769e-12
-1.05706e-09
6.29609e-12
-1.05803e-09
3.20835e-12
-1.05807e-09
1.18097e-13
-1.0572e-09
-2.97144e-12
-1.05541e-09
-6.05662e-12
-1.05271e-09
-9.13314e-12
-1.04909e-09
-1.21967e-11
-1.04457e-09
-1.52444e-11
-1.03915e-09
-1.82735e-11
-1.03283e-09
-2.128e-11
-1.02563e-09
-2.42591e-11
-1.01756e-09
-2.72069e-11
-1.00861e-09
-3.01203e-11
-9.98812e-10
-3.2996e-11
-9.88171e-10
-3.58293e-11
-9.76701e-10
-3.86159e-11
-9.64418e-10
-4.13523e-11
-9.51337e-10
-4.40349e-11
-9.37476e-10
-4.66589e-11
-9.22853e-10
-4.92193e-11
-9.07489e-10
-5.17124e-11
-8.91405e-10
-5.41352e-11
-8.74623e-10
-5.6483e-11
-8.57167e-10
-5.87503e-11
-8.39063e-10
-6.09316e-11
-8.20336e-10
-6.30235e-11
-8.01015e-10
-6.50222e-11
-7.81128e-10
-6.69226e-11
-7.60707e-10
-6.87192e-11
-7.39785e-10
-7.0407e-11
-7.18393e-10
-7.19816e-11
-6.96566e-10
-7.34386e-11
-6.74342e-10
-7.47728e-11
-6.51758e-10
-7.59788e-11
-6.28854e-10
-7.70523e-11
-6.05668e-10
-7.79891e-11
-5.82243e-10
-7.87842e-11
-5.58622e-10
-7.94323e-11
-5.3485e-10
-7.99284e-11
-5.10973e-10
-8.02682e-11
-4.87037e-10
-8.04484e-11
-4.6309e-10
-8.04648e-11
-4.39182e-10
-8.03127e-11
-4.15364e-10
-7.99878e-11
-3.91686e-10
-7.94865e-11
-3.68199e-10
-7.88059e-11
-3.44956e-10
-7.79436e-11
-3.22014e-10
-7.68969e-11
-2.99424e-10
-7.56633e-11
-2.77242e-10
-7.42414e-11
-2.5552e-10
-7.26306e-11
-2.34312e-10
-7.08306e-11
-2.13675e-10
-6.88416e-11
-1.93662e-10
-6.66643e-11
-1.74325e-10
-6.43003e-11
-1.55716e-10
-6.17534e-11
-1.37886e-10
-5.90282e-11
-1.20884e-10
-5.61295e-11
-1.04757e-10
-5.30633e-11
-8.95498e-11
-4.98372e-11
-7.53033e-11
-4.64611e-11
-6.20559e-11
-4.29468e-11
-4.98419e-11
-3.93077e-11
-3.86905e-11
-3.55589e-11
-2.86252e-11
-3.17184e-11
-1.9664e-11
-2.78081e-11
-1.18175e-11
-2.38533e-11
-5.08863e-12
-1.98824e-11
5.29091e-13
-1.59281e-11
5.05269e-12
-1.20279e-11
8.5108e-12
-8.22575e-12
1.09454e-11
-4.5731e-12
1.2413e-11
-1.12841e-12
1.29855e-11
2.04231e-12
1.27525e-11
4.86334e-12
1.18236e-11
7.24802e-12
1.03291e-11
9.09885e-12
8.42215e-12
1.0308e-11
6.27929e-12
1.07586e-11
4.10403e-12
1.03264e-11
2.13259e-12
8.87984e-12
6.47396e-13
6.28833e-12
2.49302e-12
6.08128e-13
8.83649e-13
1.61356e-12
-4.20859e-12
2.78995e-12
-1.03918e-11
4.11018e-12
-1.33506e-11
5.42848e-12
-1.38494e-11
6.52198e-12
-1.27486e-11
7.16704e-12
-1.05242e-11
7.16285e-12
-7.462e-12
6.34114e-12
-3.7536e-12
4.56731e-12
4.58308e-13
1.73092e-12
5.05814e-12
-2.24898e-12
9.95388e-12
-7.43425e-12
1.50653e-11
-1.38687e-11
2.03235e-11
-2.15781e-11
2.56696e-11
-3.05786e-11
3.10505e-11
-4.08704e-11
3.64209e-11
-5.24453e-11
4.17421e-11
-6.52886e-11
4.69782e-11
-7.93716e-11
5.21013e-11
-9.4665e-11
5.7083e-11
-1.11132e-10
6.1902e-11
-1.28727e-10
6.65383e-11
-1.47407e-10
7.09745e-11
-1.67121e-10
7.5198e-11
-1.87812e-10
7.91973e-11
-2.09425e-10
8.2961e-11
-2.31902e-10
8.64829e-11
-2.55182e-10
8.97571e-11
-2.79205e-10
9.2777e-11
-3.03907e-10
9.55406e-11
-3.29225e-10
9.80468e-11
-3.55094e-10
1.00292e-10
-3.81451e-10
1.02279e-10
-4.08232e-10
1.04009e-10
-4.35373e-10
1.05482e-10
-4.62813e-10
1.06701e-10
-4.90488e-10
1.0767e-10
-5.18336e-10
1.08392e-10
-5.46298e-10
1.0887e-10
-5.74313e-10
1.09113e-10
-6.02324e-10
1.09122e-10
-6.30274e-10
1.08904e-10
-6.58106e-10
1.08466e-10
-6.85767e-10
1.07813e-10
-7.13205e-10
1.06951e-10
-7.40368e-10
1.05887e-10
-7.67207e-10
1.04627e-10
-7.93674e-10
1.03178e-10
-8.19722e-10
1.01547e-10
-8.45307e-10
9.97413e-11
-8.70386e-10
9.77673e-11
-8.94918e-10
9.56311e-11
-9.18863e-10
9.33406e-11
-9.42185e-10
9.09023e-11
-9.64847e-10
8.83222e-11
-9.86813e-10
8.56074e-11
-1.00805e-09
8.27657e-11
-1.02853e-09
7.98028e-11
-1.04822e-09
7.67242e-11
-1.0671e-09
7.35372e-11
-1.08513e-09
7.02488e-11
-1.1023e-09
6.68645e-11
-1.11858e-09
6.33899e-11
-1.13394e-09
5.98315e-11
-1.14838e-09
5.61954e-11
-1.16186e-09
5.24868e-11
-1.17438e-09
4.87116e-11
-1.18591e-09
4.48757e-11
-1.19644e-09
4.09847e-11
-1.20596e-09
3.70432e-11
-1.21446e-09
3.30566e-11
-1.22193e-09
2.90305e-11
-1.22835e-09
2.49705e-11
-1.23373e-09
2.08817e-11
-1.23805e-09
1.67689e-11
-1.2413e-09
1.2637e-11
-1.2435e-09
8.49111e-12
-1.24463e-09
4.33696e-12
-1.24469e-09
1.79408e-13
-1.24368e-09
-3.97722e-12
-1.24161e-09
-8.12794e-12
-1.23848e-09
-1.22671e-11
-1.23429e-09
-1.63896e-11
-1.22904e-09
-2.0491e-11
-1.22275e-09
-2.45668e-11
-1.21541e-09
-2.86113e-11
-1.20705e-09
-3.26194e-11
-1.19767e-09
-3.65864e-11
-1.18729e-09
-4.05074e-11
-1.17591e-09
-4.43766e-11
-1.16355e-09
-4.81883e-11
-1.15023e-09
-5.19374e-11
-1.13596e-09
-5.56195e-11
-1.12077e-09
-5.9229e-11
-1.10466e-09
-6.27594e-11
-1.08768e-09
-6.62046e-11
-1.06983e-09
-6.95597e-11
-1.05115e-09
-7.28196e-11
-1.03165e-09
-7.59778e-11
-1.01138e-09
-7.90278e-11
-9.90344e-10
-8.19637e-11
-9.68588e-10
-8.47797e-11
-9.46142e-10
-8.74694e-11
-9.23037e-10
-9.00261e-11
-8.99312e-10
-9.24435e-11
-8.75003e-10
-9.47159e-11
-8.50147e-10
-9.68369e-11
-8.24786e-10
-9.87997e-11
-7.98962e-10
-1.00597e-10
-7.72717e-10
-1.02223e-10
-7.46098e-10
-1.03672e-10
-7.1915e-10
-1.04937e-10
-6.91921e-10
-1.06012e-10
-6.64462e-10
-1.0689e-10
-6.36824e-10
-1.07566e-10
-6.0906e-10
-1.08033e-10
-5.81222e-10
-1.08286e-10
-5.53367e-10
-1.0832e-10
-5.25552e-10
-1.08128e-10
-4.97834e-10
-1.07706e-10
-4.70272e-10
-1.07049e-10
-4.42925e-10
-1.06153e-10
-4.15852e-10
-1.05015e-10
-3.89117e-10
-1.03632e-10
-3.62782e-10
-1.02e-10
-3.36906e-10
-1.00117e-10
-3.11553e-10
-9.7984e-11
-2.86784e-10
-9.55996e-11
-2.62661e-10
-9.29643e-11
-2.39245e-10
-9.00798e-11
-2.16595e-10
-8.69491e-11
-1.94771e-10
-8.35768e-11
-1.73831e-10
-7.99686e-11
-1.53829e-10
-7.61315e-11
-1.34818e-10
-7.20739e-11
-1.16848e-10
-6.78066e-11
-9.99657e-11
-6.33431e-11
-8.42135e-11
-5.8699e-11
-6.96291e-11
-5.38919e-11
-5.62452e-11
-4.89425e-11
-4.40885e-11
-4.38751e-11
-3.31782e-11
-3.87187e-11
-2.35257e-11
-3.35063e-11
-1.51337e-11
-2.8275e-11
-7.99477e-12
-2.30671e-11
-2.09043e-12
-1.79321e-11
2.60997e-12
-1.29267e-11
6.15161e-12
-8.11558e-12
8.59524e-12
-3.5722e-12
1.00172e-11
6.20346e-13
1.05121e-11
4.36816e-12
1.01948e-11
7.56502e-12
9.20114e-12
1.00922e-11
7.68994e-12
1.18191e-11
5.84517e-12
1.26036e-11
3.87928e-12
1.22925e-11
2.04028e-12
1.07185e-11
6.251e-13
7.70282e-12
3.11799e-12
6.5709e-13
2.25731e-13
1.67953e-12
-5.23122e-12
2.71394e-12
-1.14262e-11
3.70969e-12
-1.43447e-11
4.52379e-12
-1.46643e-11
4.96132e-12
-1.31866e-11
4.81843e-12
-1.03811e-11
3.90879e-12
-6.55182e-12
2.06993e-12
-1.91461e-12
-8.33695e-13
3.36146e-12
-4.9122e-12
9.1365e-12
-1.0251e-11
1.52938e-11
-1.69165e-11
2.17306e-11
-2.49529e-11
2.83611e-11
-3.43927e-11
3.5109e-11
-4.525e-11
4.19073e-11
-5.75272e-11
4.86998e-11
-7.12188e-11
5.54331e-11
-8.63043e-11
6.20652e-11
-1.02759e-10
6.85558e-11
-1.20548e-10
7.48718e-11
-1.39631e-10
8.09849e-11
-1.5996e-10
8.68685e-11
-1.81488e-10
9.2502e-11
-2.04156e-10
9.78676e-11
-2.27907e-10
1.02948e-10
-2.52679e-10
1.07732e-10
-2.78406e-10
1.12211e-10
-3.05022e-10
1.16373e-10
-3.32459e-10
1.20213e-10
-3.60647e-10
1.2373e-10
-3.89516e-10
1.26916e-10
-4.18996e-10
1.29772e-10
-4.49015e-10
1.32299e-10
-4.79502e-10
1.34496e-10
-5.10386e-10
1.36365e-10
-5.41596e-10
1.37912e-10
-5.73065e-10
1.39138e-10
-6.04722e-10
1.40048e-10
-6.365e-10
1.40649e-10
-6.68332e-10
1.40945e-10
-7.00153e-10
1.40944e-10
-7.319e-10
1.40651e-10
-7.63508e-10
1.40076e-10
-7.9492e-10
1.39224e-10
-8.26074e-10
1.38105e-10
-8.56913e-10
1.36726e-10
-8.87382e-10
1.35096e-10
-9.17427e-10
1.33223e-10
-9.46995e-10
1.31116e-10
-9.76037e-10
1.28783e-10
-1.0045e-09
1.26233e-10
-1.03235e-09