/*--------------------------------*- C++ -*----------------------------------*\
  =========                 |
  \\      /  F ield         | OpenFOAM: The Open Source CFD Toolbox
   \\    /   O peration     | Website:  https://openfoam.org
    \\  /    A nd           | Version:  7
     \\/     M anipulation  |
\*---------------------------------------------------------------------------*/
FoamFile
{
    version     2.0;
    format      ascii;
    class       volVectorField;
    location    "0.175";
    object      U;
}
// * * * * * * * * * * * * * * * * * * * * * * * * * * * * * * * * * * * * * //

dimensions      [0 1 -1 0 0 0 0];

internalField   nonuniform List<vector> 
51200
(
(-1.25874e-08 -7.7965e-09 0)
(3.67505e-08 -1.31509e-07 0)
(2.96225e-07 -2.07656e-07 0)
(5.92805e-07 -1.65072e-07 0)
(8.39441e-07 -1.06712e-07 0)
(1.00302e-06 -6.52795e-08 0)
(1.11605e-06 -3.97965e-08 0)
(1.19548e-06 -2.47211e-08 0)
(1.24973e-06 -1.44894e-08 0)
(1.28361e-06 -6.39426e-09 0)
(1.29758e-06 -6.38678e-10 0)
(1.29281e-06 5.75338e-09 0)
(1.2685e-06 1.00569e-08 0)
(1.22424e-06 1.64042e-08 0)
(1.16e-06 2.21782e-08 0)
(1.07452e-06 2.80481e-08 0)
(9.6961e-07 3.40745e-08 0)
(8.43458e-07 3.91633e-08 0)
(6.97294e-07 4.45859e-08 0)
(5.31711e-07 5.04317e-08 0)
(3.45859e-07 5.55493e-08 0)
(1.41928e-07 6.13105e-08 0)
(-8.00299e-08 6.67685e-08 0)
(-3.20205e-07 7.13305e-08 0)
(-5.75785e-07 7.61282e-08 0)
(-8.47353e-07 8.03193e-08 0)
(-1.1342e-06 8.38921e-08 0)
(-1.43397e-06 8.81982e-08 0)
(-1.74728e-06 9.22884e-08 0)
(-2.07307e-06 9.55196e-08 0)
(-2.40889e-06 9.86545e-08 0)
(-2.7549e-06 1.00644e-07 0)
(-3.1102e-06 1.01471e-07 0)
(-3.4725e-06 1.02965e-07 0)
(-3.84203e-06 1.04867e-07 0)
(-4.21842e-06 1.06466e-07 0)
(-4.59917e-06 1.08314e-07 0)
(-4.98394e-06 1.09804e-07 0)
(-5.37252e-06 1.0993e-07 0)
(-5.76276e-06 1.09892e-07 0)
(-6.15386e-06 1.10538e-07 0)
(-6.54623e-06 1.10937e-07 0)
(-6.93823e-06 1.11066e-07 0)
(-7.32832e-06 1.11389e-07 0)
(-7.71692e-06 1.10981e-07 0)
(-8.10302e-06 1.0957e-07 0)
(-8.48487e-06 1.08179e-07 0)
(-8.86251e-06 1.06741e-07 0)
(-9.23564e-06 1.04522e-07 0)
(-9.6027e-06 1.02033e-07 0)
(-9.96308e-06 1.00056e-07 0)
(-1.0317e-05 9.83256e-08 0)
(-1.06637e-05 9.6452e-08 0)
(-1.10021e-05 9.45585e-08 0)
(-1.13319e-05 9.23607e-08 0)
(-1.16528e-05 8.92695e-08 0)
(-1.19639e-05 8.56734e-08 0)
(-1.22647e-05 8.26364e-08 0)
(-1.2555e-05 8.02151e-08 0)
(-1.28347e-05 7.75493e-08 0)
(-1.3103e-05 7.43061e-08 0)
(-1.33593e-05 7.07711e-08 0)
(-1.36035e-05 6.69307e-08 0)
(-1.38356e-05 6.27576e-08 0)
(-1.4055e-05 5.88391e-08 0)
(-1.42614e-05 5.55469e-08 0)
(-1.44546e-05 5.23631e-08 0)
(-1.46347e-05 4.87658e-08 0)
(-1.4801e-05 4.49098e-08 0)
(-1.49533e-05 4.1014e-08 0)
(-1.50917e-05 3.68727e-08 0)
(-1.52162e-05 3.24395e-08 0)
(-1.53262e-05 2.81715e-08 0)
(-1.54215e-05 2.43179e-08 0)
(-1.55025e-05 2.05427e-08 0)
(-1.55691e-05 1.6488e-08 0)
(-1.5621e-05 1.23275e-08 0)
(-1.56583e-05 8.33291e-09 0)
(-1.56809e-05 4.33394e-09 0)
(-1.56887e-05 6.68729e-11 0)
(-1.56817e-05 -4.33607e-09 0)
(-1.56598e-05 -8.5812e-09 0)
(-1.56232e-05 -1.25851e-08 0)
(-1.55722e-05 -1.6526e-08 0)
(-1.55067e-05 -2.0474e-08 0)
(-1.54267e-05 -2.4333e-08 0)
(-1.53323e-05 -2.81901e-08 0)
(-1.52238e-05 -3.22627e-08 0)
(-1.51011e-05 -3.64853e-08 0)
(-1.49643e-05 -4.05127e-08 0)
(-1.48137e-05 -4.41769e-08 0)
(-1.46495e-05 -4.77098e-08 0)
(-1.4472e-05 -5.13831e-08 0)
(-1.42814e-05 -5.51085e-08 0)
(-1.40778e-05 -5.86481e-08 0)
(-1.38615e-05 -6.20358e-08 0)
(-1.3633e-05 -6.54724e-08 0)
(-1.33925e-05 -6.89269e-08 0)
(-1.31403e-05 -7.21114e-08 0)
(-1.28768e-05 -7.49247e-08 0)
(-1.26024e-05 -7.76983e-08 0)
(-1.23173e-05 -8.07275e-08 0)
(-1.2022e-05 -8.38269e-08 0)
(-1.17169e-05 -8.66001e-08 0)
(-1.14025e-05 -8.89187e-08 0)
(-1.10795e-05 -9.10338e-08 0)
(-1.07483e-05 -9.32533e-08 0)
(-1.04092e-05 -9.55512e-08 0)
(-1.00628e-05 -9.76627e-08 0)
(-9.70957e-06 -9.94492e-08 0)
(-9.35049e-06 -1.00939e-07 0)
(-8.98615e-06 -1.02173e-07 0)
(-8.61701e-06 -1.03208e-07 0)
(-8.24366e-06 -1.04158e-07 0)
(-7.86695e-06 -1.05097e-07 0)
(-7.48776e-06 -1.0594e-07 0)
(-7.10678e-06 -1.06469e-07 0)
(-6.72475e-06 -1.06478e-07 0)
(-6.34253e-06 -1.06016e-07 0)
(-5.961e-06 -1.05415e-07 0)
(-5.58096e-06 -1.04931e-07 0)
(-5.20311e-06 -1.04483e-07 0)
(-4.82819e-06 -1.0379e-07 0)
(-4.45717e-06 -1.02597e-07 0)
(-4.09117e-06 -1.0084e-07 0)
(-3.73114e-06 -9.87004e-08 0)
(-3.37789e-06 -9.64142e-08 0)
(-3.03234e-06 -9.40827e-08 0)
(-2.69547e-06 -9.16842e-08 0)
(-2.36832e-06 -8.90736e-08 0)
(-2.05192e-06 -8.59858e-08 0)
(-1.74728e-06 -8.22267e-08 0)
(-1.45541e-06 -7.7901e-08 0)
(-1.17726e-06 -7.34011e-08 0)
(-9.13765e-07 -6.90744e-08 0)
(-6.65846e-07 -6.48604e-08 0)
(-4.34418e-07 -6.03416e-08 0)
(-2.20368e-07 -5.51654e-08 0)
(-2.45808e-08 -4.93688e-08 0)
(1.52163e-07 -4.33062e-08 0)
(3.09173e-07 -3.7274e-08 0)
(4.45734e-07 -3.12652e-08 0)
(5.61268e-07 -2.5137e-08 0)
(6.55458e-07 -1.88634e-08 0)
(7.2807e-07 -1.247e-08 0)
(7.78888e-07 -5.90379e-09 0)
(8.07866e-07 8.36671e-10 0)
(8.15235e-07 7.55542e-09 0)
(8.01569e-07 1.39626e-08 0)
(7.6773e-07 1.98367e-08 0)
(7.14835e-07 2.52087e-08 0)
(6.44486e-07 3.01984e-08 0)
(5.59071e-07 3.46732e-08 0)
(4.61925e-07 3.80768e-08 0)
(3.57424e-07 3.9627e-08 0)
(2.51287e-07 3.85488e-08 0)
(1.50973e-07 3.40497e-08 0)
(6.61643e-08 2.50677e-08 0)
(1.00625e-08 1.06339e-08 0)
(-4.59845e-09 -4.38168e-09 0)
(-1.06072e-07 7.40882e-09 0)
(-7.02366e-08 -2.3743e-07 0)
(1.77475e-07 -4.89729e-07 0)
(5.71531e-07 -4.64513e-07 0)
(9.85312e-07 -3.62468e-07 0)
(1.34083e-06 -2.66953e-07 0)
(1.63608e-06 -1.9658e-07 0)
(1.872e-06 -1.41759e-07 0)
(2.05155e-06 -9.68507e-08 0)
(2.17306e-06 -5.59973e-08 0)
(2.23881e-06 -1.58571e-08 0)
(2.2449e-06 2.30678e-08 0)
(2.19143e-06 6.29062e-08 0)
(2.07806e-06 1.03655e-07 0)
(1.9019e-06 1.44221e-07 0)
(1.6666e-06 1.86696e-07 0)
(1.3687e-06 2.27219e-07 0)
(1.01076e-06 2.67971e-07 0)
(5.93785e-07 3.08219e-07 0)
(1.16885e-07 3.46814e-07 0)
(-4.15424e-07 3.85157e-07 0)
(-1.00264e-06 4.22293e-07 0)
(-1.64362e-06 4.57174e-07 0)
(-2.33367e-06 4.91479e-07 0)
(-3.07277e-06 5.23644e-07 0)
(-3.8579e-06 5.53487e-07 0)
(-4.68473e-06 5.82253e-07 0)
(-5.55273e-06 6.08924e-07 0)
(-6.45857e-06 6.33464e-07 0)
(-7.39813e-06 6.56917e-07 0)
(-8.37029e-06 6.78166e-07 0)
(-9.37163e-06 6.96606e-07 0)
(-1.03979e-05 7.13211e-07 0)
(-1.14479e-05 7.27785e-07 0)
(-1.25189e-05 7.4003e-07 0)
(-1.36069e-05 7.51174e-07 0)
(-1.47099e-05 7.61062e-07 0)
(-1.58255e-05 7.68284e-07 0)
(-1.69497e-05 7.73527e-07 0)
(-1.80802e-05 7.77048e-07 0)
(-1.92156e-05 7.78503e-07 0)
(-2.03525e-05 7.78379e-07 0)
(-2.14881e-05 7.77312e-07 0)
(-2.26209e-05 7.74562e-07 0)
(-2.37481e-05 7.69788e-07 0)
(-2.48669e-05 7.63549e-07 0)
(-2.59758e-05 7.55952e-07 0)
(-2.70727e-05 7.46687e-07 0)
(-2.8155e-05 7.35868e-07 0)
(-2.9221e-05 7.23794e-07 0)
(-3.02691e-05 7.10452e-07 0)
(-3.12973e-05 6.959e-07 0)
(-3.23041e-05 6.80529e-07 0)
(-3.32879e-05 6.64544e-07 0)
(-3.42466e-05 6.4744e-07 0)
(-3.51788e-05 6.28703e-07 0)
(-3.60832e-05 6.08624e-07 0)
(-3.69584e-05 5.87874e-07 0)
(-3.78033e-05 5.66571e-07 0)
(-3.86169e-05 5.44543e-07 0)
(-3.93977e-05 5.21972e-07 0)
(-4.01445e-05 4.98766e-07 0)
(-4.08563e-05 4.74416e-07 0)
(-4.15324e-05 4.49025e-07 0)
(-4.21717e-05 4.23334e-07 0)
(-4.27734e-05 3.97543e-07 0)
(-4.33369e-05 3.71231e-07 0)
(-4.38618e-05 3.44393e-07 0)
(-4.43469e-05 3.17381e-07 0)
(-4.47916e-05 2.89999e-07 0)
(-4.51957e-05 2.6184e-07 0)
(-4.55588e-05 2.33125e-07 0)
(-4.58801e-05 2.04419e-07 0)
(-4.61594e-05 1.75817e-07 0)
(-4.63963e-05 1.4699e-07 0)
(-4.65906e-05 1.17888e-07 0)
(-4.67421e-05 8.87509e-08 0)
(-4.68506e-05 5.96367e-08 0)
(-4.69161e-05 3.03197e-08 0)
(-4.69386e-05 7.38796e-10 0)
(-4.6918e-05 -2.88023e-08 0)
(-4.68542e-05 -5.81115e-08 0)
(-4.67474e-05 -8.72855e-08 0)
(-4.65979e-05 -1.16374e-07 0)
(-4.6406e-05 -1.45232e-07 0)
(-4.61715e-05 -1.73756e-07 0)
(-4.58948e-05 -2.0209e-07 0)
(-4.55764e-05 -2.30441e-07 0)
(-4.52168e-05 -2.58656e-07 0)
(-4.48164e-05 -2.86359e-07 0)
(-4.43756e-05 -3.13479e-07 0)
(-4.38949e-05 -3.40264e-07 0)
(-4.33752e-05 -3.66826e-07 0)
(-4.28171e-05 -3.92906e-07 0)
(-4.22211e-05 -4.18217e-07 0)
(-4.15879e-05 -4.42881e-07 0)
(-4.09185e-05 -4.67178e-07 0)
(-4.02142e-05 -4.91011e-07 0)
(-3.94755e-05 -5.14021e-07 0)
(-3.87034e-05 -5.36061e-07 0)
(-3.78992e-05 -5.5735e-07 0)
(-3.70642e-05 -5.78102e-07 0)
(-3.61995e-05 -5.98148e-07 0)
(-3.53059e-05 -6.17166e-07 0)
(-3.43851e-05 -6.35103e-07 0)
(-3.34385e-05 -6.52081e-07 0)
(-3.24679e-05 -6.68087e-07 0)
(-3.14745e-05 -6.8297e-07 0)
(-3.04598e-05 -6.96702e-07 0)
(-2.94254e-05 -7.09382e-07 0)
(-2.83736e-05 -7.20963e-07 0)
(-2.73063e-05 -7.31169e-07 0)
(-2.6225e-05 -7.39765e-07 0)
(-2.51317e-05 -7.46855e-07 0)
(-2.40284e-05 -7.52723e-07 0)
(-2.29176e-05 -7.57364e-07 0)
(-2.18014e-05 -7.60458e-07 0)
(-2.06818e-05 -7.61767e-07 0)
(-1.9561e-05 -7.6131e-07 0)
(-1.84416e-05 -7.59246e-07 0)
(-1.73262e-05 -7.55664e-07 0)
(-1.62171e-05 -7.50461e-07 0)
(-1.51167e-05 -7.43501e-07 0)
(-1.40277e-05 -7.34743e-07 0)
(-1.29529e-05 -7.24127e-07 0)
(-1.18951e-05 -7.11537e-07 0)
(-1.08571e-05 -6.969e-07 0)
(-9.84126e-06 -6.8027e-07 0)
(-8.85019e-06 -6.61826e-07 0)
(-7.88689e-06 -6.41663e-07 0)
(-6.95448e-06 -6.19609e-07 0)
(-6.05572e-06 -5.95401e-07 0)
(-5.19322e-06 -5.68941e-07 0)
(-4.36961e-06 -5.40433e-07 0)
(-3.58748e-06 -5.10299e-07 0)
(-2.84955e-06 -4.78773e-07 0)
(-2.15854e-06 -4.45641e-07 0)
(-1.51684e-06 -4.10559e-07 0)
(-9.26492e-07 -3.73518e-07 0)
(-3.89549e-07 -3.34899e-07 0)
(9.18996e-08 -2.95128e-07 0)
(5.16094e-07 -2.54387e-07 0)
(8.81785e-07 -2.12699e-07 0)
(1.18805e-06 -1.70257e-07 0)
(1.43407e-06 -1.27441e-07 0)
(1.61938e-06 -8.4579e-08 0)
(1.7442e-06 -4.19188e-08 0)
(1.80957e-06 1.58296e-10 0)
(1.81739e-06 4.09721e-08 0)
(1.77042e-06 7.95436e-08 0)
(1.67224e-06 1.14863e-07 0)
(1.52765e-06 1.46019e-07 0)
(1.34332e-06 1.7192e-07 0)
(1.12825e-06 1.9077e-07 0)
(8.93641e-07 1.99958e-07 0)
(6.53047e-07 1.96371e-07 0)
(4.22821e-07 1.76682e-07 0)
(2.22236e-07 1.37492e-07 0)
(7.57544e-08 7.7164e-08 0)
(9.60505e-09 9.87616e-09 0)
(-1.58638e-07 1.52281e-07 0)
(-2.11589e-07 -2.84172e-07 0)
(-7.2973e-08 -7.83295e-07 0)
(2.58918e-07 -8.69334e-07 0)
(6.82262e-07 -7.7803e-07 0)
(1.10268e-06 -6.51815e-07 0)
(1.48628e-06 -5.26165e-07 0)
(1.8125e-06 -4.07574e-07 0)
(2.06433e-06 -2.93883e-07 0)
(2.2364e-06 -1.79902e-07 0)
(2.31917e-06 -6.47981e-08 0)
(2.31025e-06 5.16625e-08 0)
(2.20692e-06 1.72047e-07 0)
(2.00477e-06 2.91245e-07 0)
(1.70619e-06 4.14553e-07 0)
(1.30683e-06 5.35744e-07 0)
(8.09416e-07 6.57184e-07 0)
(2.15471e-07 7.77518e-07 0)
(-4.76317e-07 8.94191e-07 0)
(-1.26057e-06 1.00916e-06 0)
(-2.13607e-06 1.12079e-06 0)
(-3.1008e-06 1.22717e-06 0)
(-4.14896e-06 1.33084e-06 0)
(-5.2793e-06 1.42922e-06 0)
(-6.48788e-06 1.52208e-06 0)
(-7.76871e-06 1.61127e-06 0)
(-9.11943e-06 1.69421e-06 0)
(-1.05351e-05 1.77121e-06 0)
(-1.20102e-05 1.84367e-06 0)
(-1.3542e-05 1.90993e-06 0)
(-1.51257e-05 1.97035e-06 0)
(-1.67554e-05 2.02609e-06 0)
(-1.84276e-05 2.07571e-06 0)
(-2.01377e-05 2.11885e-06 0)
(-2.188e-05 2.15696e-06 0)
(-2.3651e-05 2.18939e-06 0)
(-2.54466e-05 2.21582e-06 0)
(-2.72611e-05 2.23755e-06 0)
(-2.90907e-05 2.25391e-06 0)
(-3.09317e-05 2.26423e-06 0)
(-3.27789e-05 2.26961e-06 0)
(-3.46286e-05 2.2703e-06 0)
(-3.64777e-05 2.26577e-06 0)
(-3.83213e-05 2.25661e-06 0)
(-4.01555e-05 2.24325e-06 0)
(-4.19773e-05 2.22512e-06 0)
(-4.37829e-05 2.20266e-06 0)
(-4.55686e-05 2.17652e-06 0)
(-4.73317e-05 2.14633e-06 0)
(-4.90688e-05 2.1121e-06 0)
(-5.07762e-05 2.07429e-06 0)
(-5.24515e-05 2.03277e-06 0)
(-5.40921e-05 1.98769e-06 0)
(-5.5695e-05 1.93976e-06 0)
(-5.72575e-05 1.88905e-06 0)
(-5.87775e-05 1.8351e-06 0)
(-6.02523e-05 1.77813e-06 0)
(-6.16794e-05 1.71851e-06 0)
(-6.30573e-05 1.65626e-06 0)
(-6.43843e-05 1.59159e-06 0)
(-6.56581e-05 1.5251e-06 0)
(-6.68766e-05 1.45685e-06 0)
(-6.80386e-05 1.3864e-06 0)
(-6.91424e-05 1.31391e-06 0)
(-7.01861e-05 1.23979e-06 0)
(-7.11686e-05 1.16404e-06 0)
(-7.20889e-05 1.08663e-06 0)
(-7.2946e-05 1.00798e-06 0)
(-7.37384e-05 9.28466e-07 0)
(-7.44651e-05 8.47926e-07 0)
(-7.51255e-05 7.66098e-07 0)
(-7.57187e-05 6.83156e-07 0)
(-7.62437e-05 5.99486e-07 0)
(-7.67002e-05 5.15311e-07 0)
(-7.70877e-05 4.3061e-07 0)
(-7.74058e-05 3.45423e-07 0)
(-7.76537e-05 2.59935e-07 0)
(-7.78312e-05 1.742e-07 0)
(-7.79385e-05 8.81446e-08 0)
(-7.79756e-05 1.89332e-09 0)
(-7.79424e-05 -8.42385e-08 0)
(-7.78386e-05 -1.70065e-07 0)
(-7.76645e-05 -2.55682e-07 0)
(-7.74205e-05 -3.41108e-07 0)
(-7.71069e-05 -4.26049e-07 0)
(-7.67237e-05 -5.10233e-07 0)
(-7.62718e-05 -5.93711e-07 0)
(-7.57517e-05 -6.76634e-07 0)
(-7.51642e-05 -7.58833e-07 0)
(-7.45097e-05 -8.39879e-07 0)
(-7.37891e-05 -9.19649e-07 0)
(-7.30035e-05 -9.98395e-07 0)
(-7.21541e-05 -1.07611e-06 0)
(-7.12417e-05 -1.1524e-06 0)
(-7.02672e-05 -1.22692e-06 0)
(-6.92322e-05 -1.29971e-06 0)
(-6.81383e-05 -1.37094e-06 0)
(-6.69867e-05 -1.44046e-06 0)
(-6.57788e-05 -1.50788e-06 0)
(-6.45164e-05 -1.57307e-06 0)
(-6.32016e-05 -1.63615e-06 0)
(-6.18364e-05 -1.69702e-06 0)
(-6.04223e-05 -1.75534e-06 0)
(-5.89612e-05 -1.81086e-06 0)
(-5.74556e-05 -1.86363e-06 0)
(-5.59081e-05 -1.91369e-06 0)
(-5.43209e-05 -1.96078e-06 0)
(-5.26965e-05 -2.00448e-06 0)
(-5.10373e-05 -2.04469e-06 0)
(-4.93463e-05 -2.0816e-06 0)
(-4.76266e-05 -2.11517e-06 0)
(-4.58811e-05 -2.14499e-06 0)
(-4.41127e-05 -2.17071e-06 0)
(-4.23247e-05 -2.19225e-06 0)
(-4.05205e-05 -2.20967e-06 0)
(-3.87036e-05 -2.22299e-06 0)
(-3.68773e-05 -2.23192e-06 0)
(-3.50453e-05 -2.23617e-06 0)
(-3.32113e-05 -2.23571e-06 0)
(-3.13793e-05 -2.23054e-06 0)
(-2.95535e-05 -2.22048e-06 0)
(-2.77377e-05 -2.20532e-06 0)
(-2.59357e-05 -2.18494e-06 0)
(-2.41519e-05 -2.15936e-06 0)
(-2.23908e-05 -2.12858e-06 0)
(-2.06568e-05 -2.09243e-06 0)
(-1.89543e-05 -2.05065e-06 0)
(-1.72874e-05 -2.00306e-06 0)
(-1.56606e-05 -1.94977e-06 0)
(-1.40784e-05 -1.8911e-06 0)
(-1.25452e-05 -1.82714e-06 0)
(-1.10655e-05 -1.75767e-06 0)
(-9.64367e-06 -1.68251e-06 0)
(-8.28404e-06 -1.6017e-06 0)
(-6.99093e-06 -1.51558e-06 0)
(-5.76836e-06 -1.42454e-06 0)
(-4.62011e-06 -1.32878e-06 0)
(-3.5499e-06 -1.22828e-06 0)
(-2.56135e-06 -1.12316e-06 0)
(-1.65776e-06 -1.01394e-06 0)
(-8.42101e-07 -9.01203e-07 0)
(-1.16874e-07 -7.85434e-07 0)
(5.15964e-07 -6.6709e-07 0)
(1.05498e-06 -5.46861e-07 0)
(1.4992e-06 -4.25771e-07 0)
(1.8483e-06 -3.04936e-07 0)
(2.10294e-06 -1.85344e-07 0)
(2.26489e-06 -6.80991e-08 0)
(2.33715e-06 4.51647e-08 0)
(2.32406e-06 1.52193e-07 0)
(2.23154e-06 2.50294e-07 0)
(2.06751e-06 3.36486e-07 0)
(1.84217e-06 4.07402e-07 0)
(1.56835e-06 4.58859e-07 0)
(1.26178e-06 4.8552e-07 0)
(9.41383e-07 4.81142e-07 0)
(6.29083e-07 4.39203e-07 0)
(3.49298e-07 3.53725e-07 0)
(1.33873e-07 2.22543e-07 0)
(2.33311e-08 6.4074e-08 0)
(-9.98491e-08 2.78067e-07 0)
(-1.15601e-07 -2.85597e-07 0)
(-2.81981e-09 -9.99438e-07 0)
(2.7505e-07 -1.22922e-06 0)
(6.5531e-07 -1.20017e-06 0)
(1.05862e-06 -1.0719e-06 0)
(1.44181e-06 -9.02826e-07 0)
(1.76553e-06 -7.16982e-07 0)
(2.00989e-06 -5.16768e-07 0)
(2.15562e-06 -3.07667e-07 0)
(2.19161e-06 -8.9483e-08 0)
(2.1106e-06 1.38456e-07 0)
(1.90388e-06 3.69246e-07 0)
(1.57159e-06 6.06931e-07 0)
(1.10839e-06 8.44552e-07 0)
(5.14126e-07 1.08278e-06 0)
(-2.10099e-07 1.3208e-06 0)
(-1.06616e-06 1.55409e-06 0)
(-2.04901e-06 1.78401e-06 0)
(-3.15711e-06 2.00879e-06 0)
(-4.38822e-06 2.22547e-06 0)
(-5.73611e-06 2.4359e-06 0)
(-7.19812e-06 2.63756e-06 0)
(-8.77009e-06 2.82912e-06 0)
(-1.04452e-05 3.0126e-06 0)
(-1.22195e-05 3.18567e-06 0)
(-1.40875e-05 3.34795e-06 0)
(-1.60418e-05 3.5005e-06 0)
(-1.80776e-05 3.6415e-06 0)
(-2.0189e-05 3.77066e-06 0)
(-2.23689e-05 3.88961e-06 0)
(-2.46124e-05 3.9975e-06 0)
(-2.69133e-05 4.09379e-06 0)
(-2.92646e-05 4.17974e-06 0)
(-3.16602e-05 4.25443e-06 0)
(-3.40945e-05 4.31741e-06 0)
(-3.65605e-05 4.36999e-06 0)
(-3.90527e-05 4.41226e-06 0)
(-4.1566e-05 4.44359e-06 0)
(-4.40938e-05 4.46497e-06 0)
(-4.66304e-05 4.47647e-06 0)
(-4.91707e-05 4.47769e-06 0)
(-5.17088e-05 4.46933e-06 0)
(-5.42394e-05 4.45204e-06 0)
(-5.67578e-05 4.42546e-06 0)
(-5.92587e-05 4.38996e-06 0)
(-6.17372e-05 4.34628e-06 0)
(-6.41888e-05 4.29432e-06 0)
(-6.66093e-05 4.23448e-06 0)
(-6.89939e-05 4.16757e-06 0)
(-7.13387e-05 4.09347e-06 0)
(-7.36396e-05 4.01198e-06 0)
(-7.58923e-05 3.92381e-06 0)
(-7.8093e-05 3.82939e-06 0)
(-8.02389e-05 3.72874e-06 0)
(-8.23265e-05 3.62236e-06 0)
(-8.43523e-05 3.5108e-06 0)
(-8.63133e-05 3.39388e-06 0)
(-8.82067e-05 3.27153e-06 0)
(-9.00296e-05 3.14446e-06 0)
(-9.17793e-05 3.01328e-06 0)
(-9.34538e-05 2.87798e-06 0)
(-9.50508e-05 2.73873e-06 0)
(-9.65677e-05 2.59606e-06 0)
(-9.80024e-05 2.45013e-06 0)
(-9.93534e-05 2.30077e-06 0)
(-0.000100619 2.14823e-06 0)
(-0.000101797 1.99314e-06 0)
(-0.000102886 1.83581e-06 0)
(-0.000103886 1.67623e-06 0)
(-0.000104794 1.51457e-06 0)
(-0.00010561 1.35113e-06 0)
(-0.000106333 1.18611e-06 0)
(-0.000106961 1.01962e-06 0)
(-0.000107494 8.51944e-07 0)
(-0.000107932 6.83495e-07 0)
(-0.000108273 5.14477e-07 0)
(-0.000108519 3.44817e-07 0)
(-0.000108667 1.74532e-07 0)
(-0.000108719 4.03894e-09 0)
(-0.000108674 -1.66162e-07 0)
(-0.000108532 -3.35919e-07 0)
(-0.000108294 -5.05286e-07 0)
(-0.000107959 -6.74112e-07 0)
(-0.000107528 -8.42013e-07 0)
(-0.000107002 -1.00873e-06 0)
(-0.000106382 -1.17422e-06 0)
(-0.000105668 -1.33833e-06 0)
(-0.000104861 -1.50067e-06 0)
(-0.000103961 -1.66093e-06 0)
(-0.000102972 -1.81908e-06 0)
(-0.000101892 -1.97511e-06 0)
(-0.000100725 -2.12869e-06 0)
(-9.94713e-05 -2.27937e-06 0)
(-9.81322e-05 -2.42696e-06 0)
(-9.67101e-05 -2.57141e-06 0)
(-9.52069e-05 -2.71247e-06 0)
(-9.36243e-05 -2.84975e-06 0)
(-9.19643e-05 -2.98301e-06 0)
(-9.02296e-05 -3.1122e-06 0)
(-8.84227e-05 -3.23719e-06 0)
(-8.65462e-05 -3.35755e-06 0)
(-8.46026e-05 -3.47275e-06 0)
(-8.25946e-05 -3.5826e-06 0)
(-8.05256e-05 -3.68717e-06 0)
(-7.83987e-05 -3.78621e-06 0)
(-7.62171e-05 -3.8792e-06 0)
(-7.39842e-05 -3.96573e-06 0)
(-7.17038e-05 -4.04559e-06 0)
(-6.93799e-05 -4.11874e-06 0)
(-6.70163e-05 -4.18498e-06 0)
(-6.46168e-05 -4.24385e-06 0)
(-6.21857e-05 -4.29494e-06 0)
(-5.97276e-05 -4.3381e-06 0)
(-5.72472e-05 -4.37312e-06 0)
(-5.4749e-05 -4.39968e-06 0)
(-5.22377e-05 -4.41746e-06 0)
(-4.97181e-05 -4.42627e-06 0)
(-4.71956e-05 -4.42596e-06 0)
(-4.46756e-05 -4.41637e-06 0)
(-4.21633e-05 -4.39711e-06 0)
(-3.96641e-05 -4.36777e-06 0)
(-3.71837e-05 -4.32813e-06 0)
(-3.47279e-05 -4.27821e-06 0)
(-3.23024e-05 -4.21804e-06 0)
(-2.99131e-05 -4.14743e-06 0)
(-2.75657e-05 -4.06605e-06 0)
(-2.52663e-05 -3.97371e-06 0)
(-2.3021e-05 -3.87034e-06 0)
(-2.0836e-05 -3.75607e-06 0)
(-1.8717e-05 -3.63113e-06 0)
(-1.66695e-05 -3.49562e-06 0)
(-1.46995e-05 -3.34953e-06 0)
(-1.28129e-05 -3.19295e-06 0)
(-1.10157e-05 -3.02613e-06 0)
(-9.31322e-06 -2.84941e-06 0)
(-7.71037e-06 -2.66323e-06 0)
(-6.2119e-06 -2.46811e-06 0)
(-4.82252e-06 -2.26467e-06 0)
(-3.54665e-06 -2.05367e-06 0)
(-2.38811e-06 -1.836e-06 0)
(-1.34994e-06 -1.61261e-06 0)
(-4.3458e-07 -1.38457e-06 0)
(3.55951e-07 -1.15322e-06 0)
(1.02038e-06 -9.20359e-07 0)
(1.55883e-06 -6.88083e-07 0)
(1.97278e-06 -4.58678e-07 0)
(2.26472e-06 -2.34613e-07 0)
(2.43835e-06 -1.89084e-08 0)
(2.49923e-06 1.84586e-07 0)
(2.45521e-06 3.71218e-07 0)
(2.31663e-06 5.35562e-07 0)
(2.09645e-06 6.7135e-07 0)
(1.81042e-06 7.7132e-07 0)
(1.47727e-06 8.27043e-07 0)
(1.1192e-06 8.29001e-07 0)
(7.6178e-07 7.67327e-07 0)
(4.33366e-07 6.32874e-07 0)
(1.7225e-07 4.20752e-07 0)
(3.20017e-08 1.46041e-07 0)
(-3.25969e-08 3.26112e-07 0)
(2.12664e-08 -3.23633e-07 0)
(1.5964e-07 -1.18225e-06 0)
(4.05544e-07 -1.53384e-06 0)
(7.35543e-07 -1.56744e-06 0)
(1.08877e-06 -1.44384e-06 0)
(1.41672e-06 -1.23844e-06 0)
(1.68515e-06 -9.79701e-07 0)
(1.86193e-06 -6.85616e-07 0)
(1.92664e-06 -3.64549e-07 0)
(1.86559e-06 -2.07336e-08 0)
(1.66265e-06 3.37144e-07 0)
(1.31371e-06 7.09518e-07 0)
(8.10813e-07 1.08876e-06 0)
(1.50445e-07 1.47182e-06 0)
(-6.67332e-07 1.85735e-06 0)
(-1.64606e-06 2.23903e-06 0)
(-2.78237e-06 2.617e-06 0)
(-4.07465e-06 2.98883e-06 0)
(-5.52126e-06 3.35051e-06 0)
(-7.11645e-06 3.70281e-06 0)
(-8.85655e-06 4.04312e-06 0)
(-1.07374e-05 4.36888e-06 0)
(-1.27515e-05 4.68117e-06 0)
(-1.48937e-05 4.97782e-06 0)
(-1.71582e-05 5.25762e-06 0)
(-1.95366e-05 5.52185e-06 0)
(-2.2023e-05 5.76899e-06 0)
(-2.46105e-05 5.99776e-06 0)
(-2.72902e-05 6.20928e-06 0)
(-3.00551e-05 6.40254e-06 0)
(-3.28985e-05 6.57691e-06 0)
(-3.58118e-05 6.73382e-06 0)
(-3.87877e-05 6.87299e-06 0)
(-4.18194e-05 6.9938e-06 0)
(-4.48979e-05 7.09705e-06 0)
(-4.80159e-05 7.18291e-06 0)
(-5.11666e-05 7.25077e-06 0)
(-5.43422e-05 7.30169e-06 0)
(-5.75356e-05 7.33629e-06 0)
(-6.07402e-05 7.35427e-06 0)
(-6.39488e-05 7.35632e-06 0)
(-6.71542e-05 7.34296e-06 0)
(-7.03503e-05 7.31429e-06 0)
(-7.35305e-05 7.27081e-06 0)
(-7.66885e-05 7.21321e-06 0)
(-7.98182e-05 7.14166e-06 0)
(-8.29139e-05 7.05648e-06 0)
(-8.59697e-05 6.95854e-06 0)
(-8.89804e-05 6.8484e-06 0)
(-9.1941e-05 6.72633e-06 0)
(-9.48462e-05 6.59304e-06 0)
(-9.76908e-05 6.44901e-06 0)
(-0.00010047 6.29418e-06 0)
(-0.00010318 6.12897e-06 0)
(-0.000105816 5.95439e-06 0)
(-0.000108374 5.77095e-06 0)
(-0.000110851 5.57883e-06 0)
(-0.000113243 5.37858e-06 0)
(-0.000115545 5.17076e-06 0)
(-0.000117756 4.95549e-06 0)
(-0.000119871 4.73307e-06 0)
(-0.000121888 4.50429e-06 0)
(-0.000123804 4.26981e-06 0)
(-0.000125617 4.02972e-06 0)
(-0.000127324 3.7843e-06 0)
(-0.000128924 3.53413e-06 0)
(-0.000130413 3.2796e-06 0)
(-0.000131789 3.02087e-06 0)
(-0.000133053 2.75826e-06 0)
(-0.000134201 2.49242e-06 0)
(-0.000135232 2.22378e-06 0)
(-0.000136146 1.95249e-06 0)
(-0.00013694 1.67873e-06 0)
(-0.000137615 1.40304e-06 0)
(-0.000138169 1.12597e-06 0)
(-0.000138601 8.47767e-07 0)
(-0.000138912 5.68528e-07 0)
(-0.000139101 2.88575e-07 0)
(-0.000139168 8.39185e-09 0)
(-0.000139111 -2.71633e-07 0)
(-0.000138933 -5.51248e-07 0)
(-0.000138633 -8.30091e-07 0)
(-0.000138212 -1.10769e-06 0)
(-0.000137669 -1.38373e-06 0)
(-0.000137005 -1.6581e-06 0)
(-0.000136222 -1.93058e-06 0)
(-0.000135321 -2.20062e-06 0)
(-0.000134302 -2.46765e-06 0)
(-0.000133168 -2.73148e-06 0)
(-0.000131918 -2.99201e-06 0)
(-0.000130556 -3.24881e-06 0)
(-0.000129082 -3.50131e-06 0)
(-0.000127499 -3.74913e-06 0)
(-0.000125808 -3.99213e-06 0)
(-0.000124013 -4.23004e-06 0)
(-0.000122115 -4.46222e-06 0)
(-0.000120116 -4.68808e-06 0)
(-0.00011802 -4.9074e-06 0)
(-0.00011583 -5.12008e-06 0)
(-0.000113549 -5.32566e-06 0)
(-0.000111179 -5.52349e-06 0)
(-0.000108724 -5.71305e-06 0)
(-0.000106189 -5.89403e-06 0)
(-0.000103576 -6.06615e-06 0)
(-0.000100891 -6.22892e-06 0)
(-9.81355e-05 -6.38176e-06 0)
(-9.53155e-05 -6.52427e-06 0)
(-9.24356e-05 -6.65614e-06 0)
(-8.95007e-05 -6.77685e-06 0)
(-8.65155e-05 -6.88581e-06 0)
(-8.34848e-05 -6.98262e-06 0)
(-8.04141e-05 -7.06695e-06 0)
(-7.73091e-05 -7.13846e-06 0)
(-7.41755e-05 -7.19667e-06 0)
(-7.1019e-05 -7.24094e-06 0)
(-6.78456e-05 -7.27077e-06 0)
(-6.46616e-05 -7.28588e-06 0)
(-6.14737e-05 -7.28606e-06 0)
(-5.82882e-05 -7.27094e-06 0)
(-5.51118e-05 -7.24004e-06 0)
(-5.19511e-05 -7.19291e-06 0)
(-4.88133e-05 -7.12923e-06 0)
(-4.57058e-05 -7.04871e-06 0)
(-4.26358e-05 -6.95115e-06 0)
(-3.96103e-05 -6.83639e-06 0)
(-3.66364e-05 -6.70426e-06 0)
(-3.37217e-05 -6.55469e-06 0)
(-3.08736e-05 -6.38766e-06 0)
(-2.80997e-05 -6.20304e-06 0)
(-2.54075e-05 -6.00073e-06 0)
(-2.28038e-05 -5.78093e-06 0)
(-2.02957e-05 -5.54409e-06 0)
(-1.78905e-05 -5.2907e-06 0)
(-1.55952e-05 -5.02114e-06 0)
(-1.34164e-05 -4.73575e-06 0)
(-1.13602e-05 -4.43508e-06 0)
(-9.43266e-06 -4.12008e-06 0)
(-7.63936e-06 -3.79191e-06 0)
(-5.98548e-06 -3.45183e-06 0)
(-4.47543e-06 -3.10121e-06 0)
(-3.11281e-06 -2.74167e-06 0)
(-1.90055e-06 -2.37516e-06 0)
(-8.40917e-07 -2.00401e-06 0)
(6.47601e-08 -1.63084e-06 0)
(8.1662e-07 -1.2587e-06 0)
(1.41655e-06 -8.91247e-07 0)
(1.86787e-06 -5.32879e-07 0)
(2.17524e-06 -1.88635e-07 0)
(2.34525e-06 1.35699e-07 0)
(2.38703e-06 4.33374e-07 0)
(2.31257e-06 6.96483e-07 0)
(2.13675e-06 9.15768e-07 0)
(1.87737e-06 1.08058e-06 0)
(1.55535e-06 1.17899e-06 0)
(1.19523e-06 1.19808e-06 0)
(8.2507e-07 1.1244e-06 0)
(4.76212e-07 9.44747e-07 0)
(1.92225e-07 6.48869e-07 0)
(3.64433e-08 2.43509e-07 0)
(1.05598e-08 2.83004e-07 0)
(1.19906e-07 -4.34923e-07 0)
(2.8313e-07 -1.37655e-06 0)
(5.09215e-07 -1.80691e-06 0)
(7.88912e-07 -1.87939e-06 0)
(1.07101e-06 -1.75273e-06 0)
(1.31996e-06 -1.49927e-06 0)
(1.495e-06 -1.16054e-06 0)
(1.56678e-06 -7.59588e-07 0)
(1.51336e-06 -3.09176e-07 0)
(1.31306e-06 1.75528e-07 0)
(9.56109e-07 6.8926e-07 0)
(4.29535e-07 1.22281e-06 0)
(-2.74105e-07 1.76877e-06 0)
(-1.15702e-06 2.32429e-06 0)
(-2.22494e-06 2.88029e-06 0)
(-3.47689e-06 3.43495e-06 0)
(-4.91185e-06 3.98417e-06 0)
(-6.52934e-06 4.52278e-06 0)
(-8.32461e-06 5.04975e-06 0)
(-1.02936e-05 5.56214e-06 0)
(-1.24327e-05 6.05617e-06 0)
(-1.47344e-05 6.53191e-06 0)
(-1.71928e-05 6.98709e-06 0)
(-1.98018e-05 7.41898e-06 0)
(-2.25523e-05 7.82832e-06 0)
(-2.54368e-05 8.21352e-06 0)
(-2.84483e-05 8.57291e-06 0)
(-3.15772e-05 8.90764e-06 0)
(-3.4815e-05 9.21666e-06 0)
(-3.81538e-05 9.49878e-06 0)
(-4.15835e-05 9.75469e-06 0)
(-4.50952e-05 9.98428e-06 0)
(-4.86809e-05 1.01869e-05 0)
(-5.2331e-05 1.03635e-05 0)
(-5.60363e-05 1.05145e-05 0)
(-5.97886e-05 1.06395e-05 0)
(-6.35786e-05 1.07389e-05 0)
(-6.73974e-05 1.08135e-05 0)
(-7.12371e-05 1.08633e-05 0)
(-7.50891e-05 1.0889e-05 0)
(-7.89451e-05 1.08914e-05 0)
(-8.27972e-05 1.08709e-05 0)
(-8.66375e-05 1.08279e-05 0)
(-9.04582e-05 1.07634e-05 0)
(-9.42521e-05 1.06779e-05 0)
(-9.80121e-05 1.0572e-05 0)
(-0.000101731 1.04465e-05 0)
(-0.000105402 1.03021e-05 0)
(-0.000109018 1.0139e-05 0)
(-0.000112574 9.95834e-06 0)
(-0.000116063 9.76112e-06 0)
(-0.00011948 9.54783e-06 0)
(-0.000122819 9.31894e-06 0)
(-0.000126075 9.07526e-06 0)
(-0.000129241 8.81741e-06 0)
(-0.000132314 8.54582e-06 0)
(-0.00013529 8.26142e-06 0)
(-0.000138162 7.96525e-06 0)
(-0.000140929 7.65782e-06 0)
(-0.000143585 7.33936e-06 0)
(-0.000146127 7.01066e-06 0)
(-0.00014855 6.67255e-06 0)
(-0.000150853 6.32543e-06 0)
(-0.000153031 5.96978e-06 0)
(-0.000155083 5.60643e-06 0)
(-0.000157004 5.23616e-06 0)
(-0.000158794 4.85933e-06 0)
(-0.000160449 4.47627e-06 0)
(-0.000161968 4.08762e-06 0)
(-0.000163348 3.69408e-06 0)
(-0.000164588 3.29615e-06 0)
(-0.000165686 2.89424e-06 0)
(-0.000166642 2.48887e-06 0)
(-0.000167454 2.08071e-06 0)
(-0.00016812 1.67029e-06 0)
(-0.000168641 1.25793e-06 0)
(-0.000169016 8.44122e-07 0)
(-0.000169244 4.29552e-07 0)
(-0.000169324 1.47362e-08 0)
(-0.000169258 -4.00021e-07 0)
(-0.000169045 -8.14329e-07 0)
(-0.000168686 -1.2275e-06 0)
(-0.00016818 -1.63881e-06 0)
(-0.000167529 -2.04789e-06 0)
(-0.000166734 -2.45451e-06 0)
(-0.000165794 -2.85817e-06 0)
(-0.000164713 -3.25812e-06 0)
(-0.00016349 -3.65378e-06 0)
(-0.000162128 -4.04488e-06 0)
(-0.000160628 -4.43105e-06 0)
(-0.000158992 -4.81153e-06 0)
(-0.000157223 -5.18559e-06 0)
(-0.000155322 -5.55283e-06 0)
(-0.000153292 -5.91293e-06 0)
(-0.000151136 -6.26531e-06 0)
(-0.000148856 -6.60918e-06 0)
(-0.000146456 -6.9439e-06 0)
(-0.00014394 -7.26909e-06 0)
(-0.00014131 -7.58426e-06 0)
(-0.00013857 -7.88866e-06 0)
(-0.000135724 -8.18151e-06 0)
(-0.000132776 -8.46236e-06 0)
(-0.000129731 -8.73075e-06 0)
(-0.000126594 -8.98591e-06 0)
(-0.000123368 -9.227e-06 0)
(-0.000120059 -9.45339e-06 0)
(-0.000116672 -9.66464e-06 0)
(-0.000113213 -9.86024e-06 0)
(-0.000109688 -1.00394e-05 0)
(-0.000106102 -1.02012e-05 0)
(-0.000102461 -1.0345e-05 0)
(-9.8772e-05 -1.04704e-05 0)
(-9.50416e-05 -1.05768e-05 0)
(-9.12764e-05 -1.06635e-05 0)
(-8.74831e-05 -1.07297e-05 0)
(-8.36691e-05 -1.07749e-05 0)
(-7.98421e-05 -1.07985e-05 0)
(-7.60096e-05 -1.08e-05 0)
(-7.21795e-05 -1.07787e-05 0)
(-6.83593e-05 -1.07341e-05 0)
(-6.45573e-05 -1.06658e-05 0)
(-6.07818e-05 -1.05733e-05 0)
(-5.70414e-05 -1.04564e-05 0)
(-5.33446e-05 -1.03145e-05 0)
(-4.97e-05 -1.01473e-05 0)
(-4.6116e-05 -9.95442e-06 0)
(-4.26014e-05 -9.73606e-06 0)
(-3.9165e-05 -9.49227e-06 0)
(-3.58153e-05 -9.22303e-06 0)
(-3.25611e-05 -8.92821e-06 0)
(-2.94109e-05 -8.60789e-06 0)
(-2.63731e-05 -8.26261e-06 0)
(-2.34561e-05 -7.89315e-06 0)
(-2.06678e-05 -7.50024e-06 0)
(-1.80156e-05 -7.08459e-06 0)
(-1.5507e-05 -6.64708e-06 0)
(-1.3149e-05 -6.18903e-06 0)
(-1.09481e-05 -5.71214e-06 0)
(-8.91003e-06 -5.21821e-06 0)
(-7.03984e-06 -4.70919e-06 0)
(-5.34172e-06 -4.18747e-06 0)
(-3.81897e-06 -3.65609e-06 0)
(-2.47402e-06 -3.11856e-06 0)
(-1.30811e-06 -2.57875e-06 0)
(-3.20918e-07 -2.04095e-06 0)
(4.8956e-07 -1.51021e-06 0)
(1.12691e-06 -9.92695e-07 0)
(1.59652e-06 -4.9569e-07 0)
(1.90611e-06 -2.7403e-08 0)
(2.06592e-06 4.02985e-07 0)
(2.08897e-06 7.84919e-07 0)
(1.99123e-06 1.10616e-06 0)
(1.79182e-06 1.35273e-06 0)
(1.51325e-06 1.50911e-06 0)
(1.18177e-06 1.55859e-06 0)
(8.27225e-07 1.48362e-06 0)
(4.83301e-07 1.26597e-06 0)
(1.97124e-07 8.88507e-07 0)
(3.78044e-08 3.47306e-07 0)
(3.27757e-08 1.94742e-07 0)
(1.68445e-07 -5.88606e-07 0)
(3.44994e-07 -1.57199e-06 0)
(5.47523e-07 -2.04066e-06 0)
(7.6785e-07 -2.12915e-06 0)
(9.69945e-07 -1.97585e-06 0)
(1.11747e-06 -1.66116e-06 0)
(1.17592e-06 -1.22826e-06 0)
(1.11665e-06 -7.03761e-07 0)
(9.12568e-07 -1.11648e-07 0)
(5.47944e-07 5.35587e-07 0)
(5.58277e-09 1.223e-06 0)
(-7.26194e-07 1.93835e-06 0)
(-1.65334e-06 2.67591e-06 0)
(-2.78448e-06 3.42313e-06 0)
(-4.12122e-06 4.17556e-06 0)
(-5.66414e-06 4.92659e-06 0)
(-7.41464e-06 5.66938e-06 0)
(-9.36893e-06 6.40054e-06 0)
(-1.15235e-05 7.11611e-06 0)
(-1.38755e-05 7.8106e-06 0)
(-1.64178e-05 8.48263e-06 0)
(-1.91441e-05 9.12946e-06 0)
(-2.20487e-05 9.74734e-06 0)
(-2.51223e-05 1.03362e-05 0)
(-2.83564e-05 1.08939e-05 0)
(-3.17436e-05 1.14179e-05 0)
(-3.52731e-05 1.19083e-05 0)
(-3.89357e-05 1.23643e-05 0)
(-4.27227e-05 1.27845e-05 0)
(-4.66232e-05 1.31694e-05 0)
(-5.06271e-05 1.35187e-05 0)
(-5.47248e-05 1.38314e-05 0)
(-5.89056e-05 1.41079e-05 0)
(-6.31589e-05 1.43489e-05 0)
(-6.74753e-05 1.4554e-05 0)
(-7.18444e-05 1.47239e-05 0)
(-7.62559e-05 1.48593e-05 0)
(-8.07002e-05 1.49604e-05 0)
(-8.51675e-05 1.50276e-05 0)
(-8.96479e-05 1.50619e-05 0)
(-9.41323e-05 1.5064e-05 0)
(-9.86116e-05 1.50347e-05 0)
(-0.000103076 1.49747e-05 0)
(-0.000107518 1.48849e-05 0)
(-0.000111928 1.4766e-05 0)
(-0.000116298 1.46192e-05 0)
(-0.00012062 1.44456e-05 0)