/*--------------------------------*- C++ -*----------------------------------*\
  =========                 |
  \\      /  F ield         | OpenFOAM: The Open Source CFD Toolbox
   \\    /   O peration     | Website:  https://openfoam.org
    \\  /    A nd           | Version:  7
     \\/     M anipulation  |
\*---------------------------------------------------------------------------*/
FoamFile
{
    version     2.0;
    format      ascii;
    class       volScalarField;
    location    "0.1375";
    object      p;
}
// * * * * * * * * * * * * * * * * * * * * * * * * * * * * * * * * * * * * * //

dimensions      [0 2 -2 0 0 0 0];

internalField   nonuniform List<scalar> 
51200
(
-3.78668e-07
-6.03014e-07
-6.18251e-07
-6.21176e-07
-7.65437e-07
-1.12467e-06
-1.67995e-06
-2.40121e-06
-3.26017e-06
-4.21969e-06
-5.25725e-06
-6.36616e-06
-7.53645e-06
-8.75446e-06
-1.0009e-05
-1.12866e-05
-1.258e-05
-1.38892e-05
-1.52019e-05
-1.65098e-05
-1.78141e-05
-1.91041e-05
-2.0368e-05
-2.16044e-05
-2.28107e-05
-2.39841e-05
-2.51269e-05
-2.6234e-05
-2.72873e-05
-2.82727e-05
-2.91947e-05
-3.00712e-05
-3.09189e-05
-3.17432e-05
-3.2533e-05
-3.32625e-05
-3.39111e-05
-3.44788e-05
-3.49834e-05
-3.54432e-05
-3.58642e-05
-3.62417e-05
-3.65705e-05
-3.68457e-05
-3.70633e-05
-3.72246e-05
-3.7334e-05
-3.73947e-05
-3.7406e-05
-3.73666e-05
-3.7277e-05
-3.71401e-05
-3.6958e-05
-3.67297e-05
-3.64529e-05
-3.61288e-05
-3.57618e-05
-3.53566e-05
-3.49154e-05
-3.44374e-05
-3.39196e-05
-3.33612e-05
-3.27651e-05
-3.21365e-05
-3.14803e-05
-3.07989e-05
-3.00894e-05
-2.93466e-05
-2.857e-05
-2.77657e-05
-2.69433e-05
-2.61078e-05
-2.52561e-05
-2.438e-05
-2.34765e-05
-2.25516e-05
-2.16146e-05
-2.0671e-05
-1.97204e-05
-1.8761e-05
-1.77933e-05
-1.68209e-05
-1.58485e-05
-1.48791e-05
-1.39146e-05
-1.29563e-05
-1.20058e-05
-1.10648e-05
-1.01361e-05
-9.2227e-06
-8.32667e-06
-7.44724e-06
-6.58316e-06
-5.73564e-06
-4.90813e-06
-4.10341e-06
-3.32227e-06
-2.56613e-06
-1.83976e-06
-1.14939e-06
-4.9727e-07
1.18986e-07
7.00596e-07
1.24359e-06
1.74214e-06
2.19433e-06
2.60249e-06
2.96772e-06
3.28645e-06
3.55347e-06
3.76602e-06
3.92361e-06
4.02559e-06
4.07078e-06
4.05923e-06
3.9922e-06
3.86947e-06
3.688e-06
3.44485e-06
3.14027e-06
2.77609e-06
2.35189e-06
1.86549e-06
1.31739e-06
7.11864e-07
5.2475e-08
-6.62218e-07
-1.43686e-06
-2.27318e-06
-3.16768e-06
-4.11552e-06
-5.11371e-06
-6.15979e-06
-7.24921e-06
-8.37618e-06
-9.53837e-06
-1.0738e-05
-1.19756e-05
-1.32433e-05
-1.45274e-05
-1.58158e-05
-1.71044e-05
-1.83934e-05
-1.96805e-05
-2.09578e-05
-2.22135e-05
-2.34337e-05
-2.46046e-05
-2.57144e-05
-2.6753e-05
-2.77127e-05
-2.85833e-05
-2.93481e-05
-2.99867e-05
-3.04816e-05
-3.08225e-05
-3.10078e-05
-3.10442e-05
-3.09527e-05
-3.07979e-05
-9.1792e-07
-8.14877e-07
-7.57039e-07
-7.57543e-07
-9.11209e-07
-1.26121e-06
-1.79041e-06
-2.46847e-06
-3.26431e-06
-4.15388e-06
-5.11883e-06
-6.14674e-06
-7.2286e-06
-8.35802e-06
-9.52525e-06
-1.07159e-05
-1.19254e-05
-1.31474e-05
-1.43716e-05
-1.55943e-05
-1.68113e-05
-1.80168e-05
-1.92077e-05
-2.03771e-05
-2.1518e-05
-2.26286e-05
-2.37106e-05
-2.47664e-05
-2.5791e-05
-2.67713e-05
-2.76953e-05
-2.85609e-05
-2.93747e-05
-3.01476e-05
-3.0887e-05
-3.15879e-05
-3.22351e-05
-3.28178e-05
-3.33376e-05
-3.3804e-05
-3.42243e-05
-3.46012e-05
-3.4935e-05
-3.52226e-05
-3.54601e-05
-3.56457e-05
-3.57803e-05
-3.5866e-05
-3.59041e-05
-3.58937e-05
-3.58349e-05
-3.57299e-05
-3.55812e-05
-3.53896e-05
-3.51539e-05
-3.4873e-05
-3.45483e-05
-3.4183e-05
-3.37805e-05
-3.3344e-05
-3.2875e-05
-3.23714e-05
-3.18304e-05
-3.12515e-05
-3.0639e-05
-2.99999e-05
-2.93376e-05
-2.86498e-05
-2.79334e-05
-2.71884e-05
-2.64199e-05
-2.56338e-05
-2.48319e-05
-2.40116e-05
-2.31698e-05
-2.23076e-05
-2.14289e-05
-2.05373e-05
-1.9636e-05
-1.87288e-05
-1.78193e-05
-1.69095e-05
-1.59996e-05
-1.50887e-05
-1.41782e-05
-1.3273e-05
-1.23781e-05
-1.14952e-05
-1.06228e-05
-9.76115e-06
-8.91436e-06
-8.08664e-06
-7.2784e-06
-6.4874e-06
-5.71258e-06
-4.95607e-06
-4.22177e-06
-3.5135e-06
-2.83526e-06
-2.19163e-06
-1.58562e-06
-1.0167e-06
-4.83068e-07
1.45062e-08
4.72485e-07
8.88064e-07
1.26119e-06
1.59192e-06
1.87673e-06
2.11003e-06
2.28925e-06
2.41632e-06
2.49386e-06
2.5209e-06
2.49351e-06
2.40892e-06
2.26726e-06
2.06956e-06
1.81585e-06
1.50585e-06
1.13974e-06
7.16909e-07
2.35265e-07
-3.05871e-07
-9.03025e-07
-1.55083e-06
-2.24748e-06
-2.99698e-06
-3.80429e-06
-4.6689e-06
-5.58468e-06
-6.54467e-06
-7.54489e-06
-8.58394e-06
-9.65983e-06
-1.07694e-05
-1.19105e-05
-1.30815e-05
-1.42774e-05
-1.54885e-05
-1.67036e-05
-1.79151e-05
-1.91213e-05
-2.03208e-05
-2.15087e-05
-2.26752e-05
-2.38071e-05
-2.48904e-05
-2.59136e-05
-2.68672e-05
-2.7744e-05
-2.85371e-05
-2.92348e-05
-2.98211e-05
-3.02807e-05
-3.06049e-05
-3.07954e-05
-3.08615e-05
-3.08074e-05
-3.06535e-05
-1.12661e-06
-8.87236e-07
-7.65417e-07
-7.32456e-07
-8.82729e-07
-1.23448e-06
-1.75299e-06
-2.40423e-06
-3.15994e-06
-4.00443e-06
-4.91797e-06
-5.88661e-06
-6.9033e-06
-7.96275e-06
-9.05884e-06
-1.01844e-05
-1.13274e-05
-1.24814e-05
-1.36428e-05
-1.48011e-05
-1.59527e-05
-1.70974e-05
-1.82299e-05
-1.93466e-05
-2.04424e-05
-2.15082e-05
-2.25405e-05
-2.35441e-05
-2.45241e-05
-2.54782e-05
-2.63952e-05
-2.72615e-05
-2.80687e-05
-2.88188e-05
-2.95238e-05
-3.01934e-05
-3.08254e-05
-3.14108e-05
-3.19418e-05
-3.24174e-05
-3.2843e-05
-3.3224e-05
-3.35623e-05
-3.38577e-05
-3.41082e-05
-3.43116e-05
-3.44662e-05
-3.45729e-05
-3.46338e-05
-3.4649e-05
-3.46178e-05
-3.45408e-05
-3.44192e-05
-3.42554e-05
-3.40507e-05
-3.38049e-05
-3.35174e-05
-3.31885e-05
-3.282e-05
-3.24165e-05
-3.19832e-05
-3.15203e-05
-3.10238e-05
-3.04902e-05
-2.99201e-05
-2.9319e-05
-2.86935e-05
-2.80462e-05
-2.73764e-05
-2.66823e-05
-2.59634e-05
-2.52215e-05
-2.44594e-05
-2.368e-05
-2.28852e-05
-2.2075e-05
-2.12486e-05
-2.04057e-05
-1.95493e-05
-1.8686e-05
-1.78225e-05
-1.69618e-05
-1.61023e-05
-1.52407e-05
-1.43776e-05
-1.3519e-05
-1.26717e-05
-1.18375e-05
-1.10126e-05
-1.01951e-05
-9.39012e-06
-8.60526e-06
-7.84299e-06
-7.09899e-06
-6.36848e-06
-5.6527e-06
-4.95841e-06
-4.29203e-06
-3.65638e-06
-3.053e-06
-2.48475e-06
-1.95414e-06
-1.46112e-06
-1.00423e-06
-5.83368e-07
-2.00284e-07
1.42985e-07
4.44364e-07
6.99818e-07
9.039e-07
1.05425e-06
1.15423e-06
1.20906e-06
1.21898e-06
1.17782e-06
1.07916e-06
9.22289e-07
7.10899e-07
4.47739e-07
1.32346e-07
-2.36853e-07
-6.60691e-07
-1.1399e-06
-1.67494e-06
-2.26387e-06
-2.90205e-06
-3.58601e-06
-4.31783e-06
-5.10334e-06
-5.94448e-06
-6.8351e-06
-7.76521e-06
-8.7286e-06
-9.72585e-06
-1.07596e-05
-1.1828e-05
-1.29254e-05
-1.40455e-05
-1.51833e-05
-1.63334e-05
-1.7488e-05
-1.86396e-05
-1.97839e-05
-2.09186e-05
-2.20391e-05
-2.31368e-05
-2.41996e-05
-2.52151e-05
-2.61736e-05
-2.70664e-05
-2.78858e-05
-2.86248e-05
-2.92744e-05
-2.98224e-05
-3.0256e-05
-3.05666e-05
-3.07554e-05
-3.08295e-05
-3.07766e-05
-3.05871e-05
-1.0546e-06
-7.58016e-07
-6.0168e-07
-5.93421e-07
-7.62457e-07
-1.12554e-06
-1.64357e-06
-2.27398e-06
-2.9976e-06
-3.7989e-06
-4.66567e-06
-5.58875e-06
-6.55648e-06
-7.55927e-06
-8.5989e-06
-9.66789e-06
-1.0753e-05
-1.18534e-05
-1.29616e-05
-1.40671e-05
-1.51699e-05
-1.62655e-05
-1.73482e-05
-1.84198e-05
-1.94775e-05
-2.05135e-05
-2.15194e-05
-2.24898e-05
-2.34268e-05
-2.43363e-05
-2.52189e-05
-2.60687e-05
-2.68758e-05
-2.76305e-05
-2.83306e-05
-2.89825e-05
-2.95944e-05
-3.0168e-05
-3.06974e-05
-3.11784e-05
-3.16135e-05
-3.20049e-05
-3.23524e-05
-3.26563e-05
-3.29168e-05
-3.31328e-05
-3.3303e-05
-3.34266e-05
-3.35053e-05
-3.35407e-05
-3.35333e-05
-3.34823e-05
-3.33865e-05
-3.32472e-05
-3.30672e-05
-3.28488e-05
-3.25923e-05
-3.22971e-05
-3.19631e-05
-3.15928e-05
-3.11898e-05
-3.07558e-05
-3.02905e-05
-2.97936e-05
-2.92643e-05
-2.87027e-05
-2.8112e-05
-2.74967e-05
-2.68612e-05
-2.62078e-05
-2.5534e-05
-2.4836e-05
-2.4113e-05
-2.33697e-05
-2.2612e-05
-2.18419e-05
-2.10578e-05
-2.02585e-05
-1.94461e-05
-1.86267e-05
-1.78063e-05
-1.69873e-05
-1.61686e-05
-1.53484e-05
-1.45282e-05
-1.37127e-05
-1.29073e-05
-1.21138e-05
-1.133e-05
-1.05543e-05
-9.79002e-06
-9.04406e-06
-8.31964e-06
-7.61365e-06
-6.9212e-06
-6.24264e-06
-5.58519e-06
-4.95709e-06
-4.36139e-06
-3.79707e-06
-3.26457e-06
-2.76738e-06
-2.3084e-06
-1.88698e-06
-1.50062e-06
-1.14878e-06
-8.34183e-07
-5.61104e-07
-3.33896e-07
-1.56266e-07
-2.95586e-08
4.85597e-08
8.21618e-08
7.23106e-08
1.44508e-08
-9.78477e-08
-2.66622e-07
-4.88535e-07
-7.59899e-07
-1.08099e-06
-1.45477e-06
-1.88269e-06
-2.36335e-06
-2.89457e-06
-3.4749e-06
-4.10296e-06
-4.77725e-06
-5.49807e-06
-6.26834e-06
-7.08972e-06
-7.95777e-06
-8.86316e-06
-9.79813e-06
-1.07621e-05
-1.17598e-05
-1.27925e-05
-1.38545e-05
-1.49361e-05
-1.60288e-05
-1.7128e-05
-1.82305e-05
-1.93318e-05
-2.04277e-05
-2.1514e-05
-2.25844e-05
-2.36299e-05
-2.46389e-05
-2.56007e-05
-2.65081e-05
-2.73554e-05
-2.81349e-05
-2.88377e-05
-2.94538e-05
-2.99731e-05
-3.03867e-05
-3.06871e-05
-3.08735e-05
-3.09488e-05
-3.08887e-05
-3.06684e-05
-8.24477e-07
-5.29106e-07
-3.80148e-07
-4.08243e-07
-6.08791e-07
-9.78076e-07
-1.48242e-06
-2.09414e-06
-2.78655e-06
-3.54669e-06
-4.36894e-06
-5.2453e-06
-6.16745e-06
-7.12566e-06
-8.11567e-06
-9.13222e-06
-1.01686e-05
-1.12185e-05
-1.22759e-05
-1.33355e-05
-1.43933e-05
-1.54458e-05
-1.64873e-05
-1.75142e-05
-1.85276e-05
-1.95274e-05
-2.05075e-05
-2.14593e-05
-2.23771e-05
-2.32592e-05
-2.41067e-05
-2.49226e-05
-2.5709e-05
-2.64589e-05
-2.7161e-05
-2.78119e-05
-2.84168e-05
-2.89805e-05
-2.95033e-05
-2.99846e-05
-3.04254e-05
-3.08255e-05
-3.11835e-05
-3.14986e-05
-3.17702e-05
-3.19983e-05
-3.21827e-05
-3.23224e-05
-3.24179e-05
-3.24712e-05
-3.24836e-05
-3.24551e-05
-3.23846e-05
-3.22715e-05
-3.21174e-05
-3.19245e-05
-3.16935e-05
-3.14261e-05
-3.11243e-05
-3.07885e-05
-3.04185e-05
-3.00137e-05
-2.95756e-05
-2.91082e-05
-2.86136e-05
-2.80904e-05
-2.75375e-05
-2.69567e-05
-2.63539e-05
-2.57343e-05
-2.50974e-05
-2.44389e-05
-2.37567e-05
-2.30536e-05
-2.23344e-05
-2.16012e-05
-2.08535e-05
-2.00923e-05
-1.93214e-05
-1.85462e-05
-1.777e-05
-1.6992e-05
-1.62113e-05
-1.54297e-05
-1.46512e-05
-1.38791e-05
-1.31146e-05
-1.2358e-05
-1.16105e-05
-1.08743e-05
-1.01524e-05
-9.44735e-06
-8.75984e-06
-8.08843e-06
-7.4316e-06
-6.79058e-06
-6.1708e-06
-5.57956e-06
-5.02116e-06
-4.49538e-06
-4.00101e-06
-3.53944e-06
-3.11368e-06
-2.72471e-06
-2.37032e-06
-2.0488e-06
-1.76297e-06
-1.51911e-06
-1.32214e-06
-1.17289e-06
-1.06943e-06
-1.0101e-06
-9.94873e-07
-1.02515e-06
-1.10344e-06
-1.23267e-06
-1.41407e-06
-1.64585e-06
-1.92535e-06
-2.25265e-06
-2.63108e-06
-3.06332e-06
-3.54749e-06
-4.07842e-06
-4.65246e-06
-5.27021e-06
-5.93452e-06
-6.64693e-06
-7.40683e-06
-8.21191e-06
-9.05795e-06
-9.93907e-06
-1.08497e-05
-1.17875e-05
-1.27549e-05
-1.37537e-05
-1.47808e-05
-1.5827e-05
-1.6882e-05
-1.79392e-05
-1.89967e-05
-2.0053e-05
-2.11054e-05
-2.21491e-05
-2.31766e-05
-2.4178e-05
-2.51427e-05
-2.60604e-05
-2.69251e-05
-2.77335e-05
-2.848e-05
-2.91549e-05
-2.97467e-05
-3.02452e-05
-3.06439e-05
-3.09383e-05
-3.11262e-05
-3.12064e-05
-3.11486e-05
-3.09209e-05
-5.21292e-07
-2.39696e-07
-1.19305e-07
-1.87151e-07
-4.15501e-07
-7.8233e-07
-1.26955e-06
-1.85606e-06
-2.5189e-06
-3.24798e-06
-4.03102e-06
-4.86357e-06
-5.74336e-06
-6.66121e-06
-7.6074e-06
-8.58088e-06
-9.5738e-06
-1.05782e-05
-1.1592e-05
-1.26085e-05
-1.36237e-05
-1.46382e-05
-1.56464e-05
-1.66402e-05
-1.76175e-05
-1.85781e-05
-1.95207e-05
-2.04444e-05
-2.1345e-05
-2.22152e-05
-2.30486e-05
-2.38441e-05
-2.46062e-05
-2.53358e-05
-2.60276e-05
-2.66771e-05
-2.72821e-05
-2.78435e-05
-2.83647e-05
-2.88475e-05
-2.92918e-05
-2.96972e-05
-3.00628e-05
-3.03879e-05
-3.06707e-05
-3.09106e-05
-3.11078e-05
-3.12623e-05
-3.13748e-05
-3.14464e-05
-3.14769e-05
-3.1467e-05
-3.14175e-05
-3.1329e-05
-3.12017e-05
-3.10354e-05
-3.08299e-05
-3.05874e-05
-3.03121e-05
-3.00054e-05
-2.9666e-05
-2.92923e-05
-2.88844e-05
-2.84453e-05
-2.79787e-05
-2.74861e-05
-2.69673e-05
-2.64235e-05
-2.58571e-05
-2.5271e-05
-2.46654e-05
-2.40392e-05
-2.33933e-05
-2.27295e-05
-2.20496e-05
-2.13532e-05
-2.06407e-05
-1.9915e-05
-1.91824e-05
-1.84481e-05
-1.77131e-05
-1.69747e-05
-1.62314e-05
-1.54869e-05
-1.47477e-05
-1.4017e-05
-1.32926e-05
-1.25725e-05
-1.18593e-05
-1.11593e-05
-1.04771e-05
-9.8125e-06
-9.16229e-06
-8.52473e-06
-7.90201e-06
-7.29838e-06
-6.71769e-06
-6.16368e-06
-5.64006e-06
-5.14921e-06
-4.69159e-06
-4.26696e-06
-3.87562e-06
-3.51796e-06
-3.1932e-06
-2.90061e-06
-2.64306e-06
-2.42742e-06
-2.25944e-06
-2.13882e-06
-2.06062e-06
-2.02171e-06
-2.02446e-06
-2.07384e-06
-2.1726e-06
-2.32044e-06
-2.51605e-06
-2.75838e-06
-3.04691e-06
-3.38223e-06
-3.76661e-06
-4.20245e-06
-4.68879e-06
-5.22037e-06
-5.79173e-06
-6.40259e-06
-7.05793e-06
-7.76219e-06
-8.51411e-06
-9.30736e-06
-1.0135e-05
-1.09931e-05
-1.18807e-05
-1.27969e-05
-1.37413e-05
-1.47125e-05
-1.5707e-05
-1.67186e-05
-1.77392e-05
-1.87618e-05
-1.97833e-05
-2.08028e-05
-2.18182e-05
-2.28248e-05
-2.38142e-05
-2.47769e-05
-2.57038e-05
-2.65866e-05
-2.74189e-05
-2.81974e-05
-2.89172e-05
-2.95698e-05
-3.01444e-05
-3.06309e-05
-3.10229e-05
-3.13175e-05
-3.15125e-05
-3.1604e-05
-3.15601e-05
-3.13484e-05
-1.29436e-07
1.12564e-07
1.96481e-07
9.61606e-08
-1.4945e-07
-5.20274e-07
-9.93682e-07
-1.55425e-06
-2.192e-06
-2.89256e-06
-3.64651e-06
-4.44547e-06
-5.28838e-06
-6.16901e-06
-7.079e-06
-8.01541e-06
-8.97033e-06
-9.93703e-06
-1.09135e-05
-1.1893e-05
-1.28702e-05
-1.38466e-05
-1.48211e-05
-1.57881e-05
-1.67413e-05
-1.76759e-05
-1.8589e-05
-1.94808e-05
-2.03524e-05
-2.12021e-05
-2.20246e-05
-2.2813e-05
-2.35635e-05
-2.42769e-05
-2.4955e-05
-2.55969e-05
-2.61986e-05
-2.6759e-05
-2.72816e-05
-2.7768e-05
-2.82172e-05
-2.8628e-05
-2.89996e-05
-2.93325e-05
-2.96254e-05
-2.98761e-05
-3.00847e-05
-3.02525e-05
-3.03806e-05
-3.04698e-05
-3.05189e-05
-3.05271e-05
-3.04962e-05
-3.0428e-05
-3.0323e-05
-3.01809e-05
-3.00015e-05
-2.97858e-05
-2.95363e-05
-2.9254e-05
-2.89392e-05
-2.85931e-05
-2.82159e-05
-2.78072e-05
-2.7368e-05
-2.69009e-05
-2.64099e-05
-2.58986e-05
-2.53679e-05
-2.48164e-05
-2.42424e-05
-2.36468e-05
-2.30332e-05
-2.24042e-05
-2.17592e-05
-2.10972e-05
-2.04191e-05
-1.97295e-05
-1.90344e-05
-1.83377e-05
-1.76396e-05
-1.69372e-05
-1.62304e-05
-1.55231e-05
-1.48213e-05
-1.41274e-05
-1.34397e-05
-1.27557e-05
-1.20783e-05
-1.14143e-05
-1.07689e-05
-1.01415e-05
-9.52748e-06
-8.92426e-06
-8.33543e-06
-7.76776e-06
-7.22544e-06
-6.70941e-06
-6.22089e-06
-5.76307e-06
-5.33903e-06
-4.9492e-06
-4.5916e-06
-4.26445e-06
-3.96775e-06
-3.70321e-06
-3.47456e-06
-3.28737e-06
-3.14622e-06
-3.05108e-06
-2.99746e-06
-2.98168e-06
-3.00564e-06
-3.07508e-06
-3.19351e-06
-3.35949e-06
-3.56967e-06
-3.82287e-06
-4.12078e-06
-4.46566e-06
-4.85863e-06
-5.29957e-06
-5.78693e-06
-6.31742e-06
-6.88719e-06
-7.49534e-06
-8.14576e-06
-8.84326e-06
-9.58738e-06
-1.0371e-05
-1.1185e-05
-1.20248e-05
-1.28916e-05
-1.37879e-05
-1.4713e-05
-1.56628e-05
-1.66313e-05
-1.76125e-05
-1.86016e-05
-1.95939e-05
-2.05861e-05
-2.15765e-05
-2.25623e-05
-2.3538e-05
-2.44953e-05
-2.54246e-05
-2.63188e-05
-2.7173e-05
-2.79818e-05
-2.87402e-05
-2.94418e-05
-3.00785e-05
-3.06417e-05
-3.1123e-05
-3.15165e-05
-3.18191e-05
-3.20282e-05
-3.21383e-05
-3.21194e-05
-3.19425e-05
3.7785e-07
5.50961e-07
5.85357e-07
4.60206e-07
1.98463e-07
-1.77588e-07
-6.4414e-07
-1.19138e-06
-1.80613e-06
-2.48309e-06
-3.21386e-06
-3.98815e-06
-4.80197e-06
-5.65183e-06
-6.53143e-06
-7.43563e-06
-8.35853e-06
-9.29306e-06
-1.02375e-05
-1.11878e-05
-1.21355e-05
-1.30795e-05
-1.40209e-05
-1.49573e-05
-1.58843e-05
-1.67987e-05
-1.76948e-05
-1.85675e-05
-1.94153e-05
-2.02402e-05
-2.1044e-05
-2.18212e-05
-2.25637e-05
-2.32691e-05
-2.39389e-05
-2.4573e-05
-2.517e-05
-2.57295e-05
-2.62534e-05
-2.67427e-05
-2.71965e-05
-2.76134e-05
-2.79917e-05
-2.83314e-05
-2.86324e-05
-2.88929e-05
-2.91128e-05
-2.92933e-05
-2.9435e-05
-2.95387e-05
-2.96044e-05
-2.96313e-05
-2.96198e-05
-2.95709e-05
-2.94846e-05
-2.9362e-05
-2.92055e-05
-2.90159e-05
-2.87926e-05
-2.85345e-05
-2.82422e-05
-2.79192e-05
-2.75682e-05
-2.71881e-05
-2.6777e-05
-2.63363e-05
-2.58716e-05
-2.53887e-05
-2.48884e-05
-2.43678e-05
-2.38249e-05
-2.32609e-05
-2.26795e-05
-2.20824e-05
-2.14683e-05
-2.08368e-05
-2.01911e-05
-1.95369e-05
-1.88789e-05
-1.82182e-05
-1.75533e-05
-1.68837e-05
-1.62119e-05
-1.5542e-05
-1.48769e-05
-1.42168e-05
-1.35611e-05
-1.29109e-05
-1.22701e-05
-1.16436e-05
-1.10344e-05
-1.04415e-05
-9.86181e-06
-9.29371e-06
-8.74015e-06
-8.20751e-06
-7.70072e-06
-7.22085e-06
-6.76788e-06
-6.34382e-06
-5.95223e-06
-5.59465e-06
-5.26859e-06
-4.97047e-06
-4.70029e-06
-4.46248e-06
-4.26285e-06
-4.10546e-06
-3.99144e-06
-3.91973e-06
-3.88831e-06
-3.89581e-06
-3.94358e-06
-4.03533e-06
-4.1736e-06
-4.35693e-06
-4.58167e-06
-4.84638e-06
-5.15383e-06
-5.5082e-06
-5.91083e-06
-6.35915e-06
-6.84899e-06
-7.37775e-06
-7.9452e-06
-8.55266e-06
-9.20251e-06
-9.89665e-06
-1.06336e-05
-1.14074e-05
-1.22103e-05
-1.30371e-05
-1.38884e-05
-1.47674e-05
-1.56745e-05
-1.66055e-05
-1.7553e-05
-1.85102e-05
-1.94731e-05
-2.04396e-05
-2.14074e-05
-2.23741e-05
-2.33357e-05
-2.42858e-05
-2.52162e-05
-2.61184e-05
-2.69865e-05
-2.78178e-05
-2.8609e-05
-2.93544e-05
-3.00459e-05
-3.06742e-05
-3.1232e-05
-3.17139e-05
-3.21154e-05
-3.24329e-05
-3.26631e-05
-3.27995e-05
-3.28159e-05
-3.26889e-05
1.0087e-06
1.09688e-06
1.07046e-06
9.0959e-07
6.32579e-07
2.51199e-07
-2.18603e-07
-7.5982e-07
-1.36336e-06
-2.02302e-06
-2.73536e-06
-3.49173e-06
-4.2841e-06
-5.11139e-06
-5.96603e-06
-6.84338e-06
-7.73995e-06
-8.6471e-06
-9.56267e-06
-1.04862e-05
-1.14113e-05
-1.2333e-05
-1.32504e-05
-1.41602e-05
-1.50599e-05
-1.59494e-05
-1.68266e-05
-1.76853e-05
-1.85196e-05
-1.93289e-05
-2.01151e-05
-2.08762e-05
-2.16078e-05
-2.2307e-05
-2.29714e-05
-2.35999e-05
-2.41938e-05
-2.47538e-05
-2.52798e-05
-2.57714e-05
-2.62283e-05
-2.66506e-05
-2.70361e-05
-2.73825e-05
-2.769e-05
-2.7959e-05
-2.81899e-05
-2.83832e-05
-2.8538e-05
-2.86541e-05
-2.87331e-05
-2.8776e-05
-2.87829e-05
-2.8753e-05
-2.86855e-05
-2.85817e-05
-2.84452e-05
-2.82773e-05
-2.80769e-05
-2.78425e-05
-2.7574e-05
-2.72738e-05
-2.6945e-05
-2.65879e-05
-2.62018e-05
-2.57884e-05
-2.53521e-05
-2.48971e-05
-2.44234e-05
-2.39293e-05
-2.34147e-05
-2.28814e-05
-2.23314e-05
-2.17644e-05
-2.11791e-05
-2.05766e-05
-1.99619e-05
-1.93416e-05
-1.87187e-05
-1.80916e-05
-1.74581e-05
-1.68197e-05
-1.61812e-05
-1.5547e-05
-1.49173e-05
-1.42897e-05
-1.36645e-05
-1.30463e-05
-1.24411e-05
-1.18522e-05
-1.12791e-05
-1.07194e-05
-1.01725e-05
-9.63931e-06
-9.12238e-06
-8.62543e-06
-8.15229e-06
-7.70543e-06
-7.28624e-06
-6.89625e-06
-6.53741e-06
-6.21067e-06
-5.91389e-06
-5.64349e-06
-5.39948e-06
-5.18764e-06
-5.0157e-06
-4.88747e-06
-4.80119e-06
-4.75354e-06
-4.74383e-06
-4.77382e-06
-4.84563e-06
-4.96055e-06
-5.11867e-06
-5.31841e-06
-5.55738e-06
-5.83472e-06
-6.15317e-06
-6.51726e-06
-6.92889e-06
-7.38488e-06
-7.87916e-06
-8.40819e-06
-8.97398e-06
-9.5812e-06
-1.02325e-05
-1.09265e-05
-1.16585e-05
-1.24229e-05
-1.3215e-05
-1.40317e-05
-1.48729e-05
-1.57397e-05
-1.66314e-05
-1.75447e-05
-1.84736e-05
-1.94112e-05
-2.03538e-05
-2.12999e-05
-2.22482e-05
-2.3196e-05
-2.41376e-05
-2.50657e-05
-2.59733e-05
-2.68539e-05
-2.77029e-05
-2.85184e-05
-2.92977e-05
-3.0035e-05
-3.07216e-05
-3.13479e-05
-3.19069e-05
-3.23951e-05
-3.28097e-05
-3.31478e-05
-3.34054e-05
-3.35755e-05
-3.36363e-05
-3.3571e-05
1.75358e-06
1.75546e-06
1.65929e-06
1.45392e-06
1.15209e-06
7.56835e-07
2.82482e-07
-2.61163e-07
-8.62625e-07
-1.51458e-06
-2.21499e-06
-2.957e-06
-3.73578e-06
-4.54669e-06
-5.38268e-06
-6.23974e-06
-7.11605e-06
-8.0032e-06
-8.89497e-06
-9.79307e-06
-1.06963e-05
-1.15985e-05
-1.24974e-05
-1.33901e-05
-1.42713e-05
-1.51393e-05
-1.59947e-05
-1.68354e-05
-1.76576e-05
-1.84573e-05
-1.92312e-05
-1.99787e-05
-2.06998e-05
-2.1392e-05
-2.20509e-05
-2.26756e-05
-2.32681e-05
-2.38293e-05
-2.43579e-05
-2.48523e-05
-2.53123e-05
-2.57391e-05
-2.61306e-05
-2.64835e-05
-2.67976e-05
-2.70742e-05
-2.73145e-05
-2.75191e-05
-2.76866e-05
-2.78153e-05
-2.79071e-05
-2.79637e-05
-2.79853e-05
-2.79713e-05
-2.7922e-05
-2.78382e-05
-2.77216e-05
-2.75725e-05
-2.73906e-05
-2.71767e-05
-2.69315e-05
-2.6655e-05
-2.63477e-05
-2.60104e-05
-2.56457e-05
-2.52578e-05
-2.48496e-05
-2.4422e-05
-2.39739e-05
-2.35048e-05
-2.30167e-05
-2.25119e-05
-2.19906e-05
-2.14512e-05
-2.0893e-05
-2.03193e-05
-1.97361e-05
-1.91486e-05
-1.85577e-05
-1.79613e-05
-1.73582e-05
-1.67509e-05
-1.61449e-05
-1.55436e-05
-1.49461e-05
-1.43497e-05
-1.37555e-05
-1.31698e-05
-1.25993e-05
-1.20464e-05
-1.15084e-05
-1.09819e-05
-1.04672e-05
-9.96779e-06
-9.4868e-06
-9.02571e-06
-8.58612e-06
-8.17082e-06
-7.78331e-06
-7.42623e-06
-7.09996e-06
-6.80314e-06
-6.53357e-06
-6.28947e-06
-6.07223e-06
-5.88764e-06
-5.74289e-06
-5.64154e-06
-5.58145e-06
-5.5584e-06
-5.57159e-06
-5.62416e-06
-5.71915e-06
-5.85654e-06
-6.03393e-06
-6.249e-06
-6.50114e-06
-6.79159e-06
-7.12311e-06
-7.49873e-06
-7.91925e-06
-8.38171e-06
-8.88067e-06
-9.41257e-06
-9.97964e-06
-1.05878e-05
-1.12405e-05
-1.19352e-05
-1.26645e-05
-1.34218e-05
-1.42045e-05
-1.50123e-05
-1.58459e-05
-1.67045e-05
-1.75851e-05
-1.84835e-05
-1.93955e-05
-2.03162e-05
-2.12426e-05
-2.21733e-05
-2.3107e-05
-2.404e-05
-2.49657e-05
-2.58758e-05
-2.67643e-05
-2.76277e-05
-2.84635e-05
-2.92699e-05
-3.00435e-05
-3.07773e-05
-3.14629e-05
-3.20918e-05
-3.26575e-05
-3.31573e-05
-3.35899e-05
-3.39531e-05
-3.42433e-05
-3.44532e-05
-3.45666e-05
-3.45722e-05
2.59687e-06
2.51323e-06
2.34923e-06
2.09488e-06
1.75545e-06
1.3385e-06
8.51593e-07
3.00427e-07
-3.06313e-07
-9.59843e-07
-1.65485e-06
-2.39009e-06
-3.15917e-06
-3.95811e-06
-4.78139e-06
-5.62311e-06
-6.48345e-06
-7.35645e-06
-8.23347e-06
-9.11441e-06
-9.99847e-06
-1.08815e-05
-1.17618e-05
-1.26388e-05
-1.35074e-05
-1.43622e-05
-1.52009e-05
-1.60246e-05
-1.68334e-05
-1.76223e-05
-1.83864e-05
-1.91252e-05
-1.98381e-05
-2.0523e-05
-2.1177e-05
-2.17995e-05
-2.23919e-05
-2.29542e-05
-2.34851e-05
-2.39833e-05
-2.44474e-05
-2.48778e-05
-2.52737e-05
-2.56325e-05
-2.59536e-05
-2.62382e-05
-2.64867e-05
-2.66997e-05
-2.68773e-05
-2.70186e-05
-2.71241e-05
-2.71944e-05
-2.72286e-05
-2.72277e-05
-2.71945e-05
-2.71296e-05
-2.70322e-05
-2.69008e-05
-2.67357e-05
-2.65396e-05
-2.63147e-05
-2.606e-05
-2.57738e-05
-2.54567e-05
-2.51134e-05
-2.47493e-05
-2.43664e-05
-2.39635e-05
-2.35396e-05
-2.30954e-05
-2.26336e-05
-2.21557e-05
-2.16605e-05
-2.11462e-05
-2.06139e-05
-2.0069e-05
-1.95174e-05
-1.89614e-05
-1.83999e-05
-1.78316e-05
-1.72579e-05
-1.66825e-05
-1.6109e-05
-1.55384e-05
-1.49697e-05
-1.44024e-05
-1.38397e-05
-1.32878e-05
-1.27519e-05
-1.2233e-05
-1.17283e-05
-1.12349e-05
-1.07531e-05
-1.02867e-05
-9.83939e-06
-9.41218e-06
-9.00571e-06
-8.62217e-06
-8.26585e-06
-7.94044e-06
-7.64566e-06
-7.37785e-06
-7.13405e-06
-6.91484e-06
-6.72449e-06
-6.56878e-06
-6.45221e-06
-6.37639e-06
-6.33995e-06
-6.34032e-06
-6.37704e-06
-6.45271e-06
-6.5699e-06
-6.72803e-06
-6.92356e-06
-7.1534e-06
-7.4181e-06
-7.72132e-06
-8.06685e-06
-8.45598e-06
-8.8867e-06
-9.35518e-06
-9.85801e-06
-1.0394e-05
-1.09655e-05
-1.15771e-05
-1.22313e-05
-1.29253e-05
-1.36522e-05
-1.4405e-05
-1.51815e-05
-1.59828e-05
-1.681e-05
-1.7662e-05
-1.85344e-05
-1.94215e-05
-2.03194e-05
-2.12257e-05
-2.21389e-05
-2.30582e-05
-2.39811e-05
-2.49028e-05
-2.58161e-05
-2.67125e-05
-2.75866e-05
-2.84373e-05
-2.92645e-05
-3.0067e-05
-3.08399e-05
-3.15748e-05
-3.22632e-05
-3.28983e-05
-3.34752e-05
-3.39916e-05
-3.44467e-05
-3.48394e-05
-3.51664e-05
-3.54208e-05
-3.55924e-05
-3.56759e-05
3.52737e-06
3.35625e-06
3.12719e-06
2.82148e-06
2.44079e-06
1.99316e-06
1.48493e-06
9.20315e-07
3.03233e-07
-3.57173e-07
-1.05694e-06
-1.79208e-06
-2.55675e-06
-3.34958e-06
-4.16591e-06
-4.99781e-06
-5.84403e-06
-6.70435e-06
-7.57226e-06
-8.44282e-06
-9.31485e-06
-1.01853e-05
-1.10507e-05
-1.19118e-05
-1.27669e-05
-1.36102e-05
-1.44384e-05
-1.52511e-05
-1.60475e-05
-1.68245e-05
-1.75803e-05
-1.8313e-05
-1.90198e-05
-1.96986e-05
-2.03489e-05
-2.09709e-05
-2.15641e-05
-2.21269e-05
-2.26595e-05
-2.3162e-05
-2.36313e-05
-2.40652e-05
-2.4464e-05
-2.48275e-05
-2.51557e-05
-2.54488e-05
-2.57054e-05
-2.59256e-05
-2.61112e-05
-2.62632e-05
-2.6381e-05
-2.64639e-05
-2.6511e-05
-2.65236e-05
-2.65052e-05
-2.64563e-05
-2.63753e-05
-2.62606e-05
-2.61126e-05
-2.5934e-05
-2.57267e-05
-2.54898e-05
-2.52224e-05
-2.49261e-05
-2.46057e-05
-2.42654e-05
-2.39056e-05
-2.35249e-05
-2.31234e-05
-2.27036e-05
-2.22673e-05
-2.18146e-05
-2.13434e-05
-2.08531e-05
-2.03468e-05
-1.98309e-05
-1.93099e-05
-1.87835e-05
-1.82495e-05
-1.77081e-05
-1.71632e-05
-1.66193e-05
-1.60777e-05
-1.55367e-05
-1.49952e-05
-1.44557e-05
-1.3924e-05
-1.34062e-05
-1.29047e-05
-1.24183e-05
-1.1945e-05
-1.14838e-05
-1.10354e-05
-1.06023e-05
-1.01869e-05
-9.79076e-06
-9.41559e-06
-9.06383e-06
-8.73916e-06
-8.44472e-06
-8.17979e-06
-7.93981e-06
-7.7215e-06
-7.52711e-06
-7.36336e-06
-7.23649e-06
-7.14839e-06
-7.0978e-06
-7.08352e-06
-7.10566e-06
-7.16527e-06
-7.26392e-06
-7.40232e-06
-7.57903e-06
-7.7908e-06
-8.03503e-06
-8.31291e-06
-8.62925e-06
-8.98863e-06
-9.39147e-06
-9.83338e-06
-1.03089e-05
-1.08158e-05
-1.1356e-05
-1.19334e-05
-1.25507e-05
-1.32073e-05
-1.38998e-05
-1.46231e-05
-1.53723e-05
-1.61458e-05
-1.69439e-05
-1.7767e-05
-1.86134e-05
-1.94786e-05
-2.03566e-05
-2.12435e-05
-2.21382e-05
-2.30411e-05
-2.3952e-05
-2.48674e-05
-2.57808e-05
-2.66845e-05
-2.75707e-05
-2.84352e-05
-2.92783e-05
-3.01014e-05
-3.09035e-05
-3.16792e-05
-3.24193e-05
-3.31147e-05
-3.37598e-05
-3.43516e-05
-3.48888e-05
-3.53709e-05
-3.57972e-05
-3.61647e-05
-3.64668e-05
-3.67e-05
-3.68656e-05
4.54576e-06
4.27955e-06
3.98049e-06
3.62338e-06
3.20033e-06
2.71506e-06
2.17705e-06
1.59208e-06
9.61386e-07
2.88432e-07
-4.20313e-07
-1.16057e-06
-1.92749e-06
-2.71931e-06
-3.53498e-06
-4.36445e-06
-5.20327e-06
-6.05461e-06
-6.91421e-06
-7.77607e-06
-8.63993e-06
-9.50287e-06
-1.03602e-05
-1.12105e-05
-1.20529e-05
-1.28851e-05
-1.37052e-05
-1.45101e-05
-1.52968e-05
-1.60644e-05
-1.6813e-05
-1.75402e-05
-1.82418e-05
-1.89165e-05
-1.95657e-05
-2.01885e-05
-2.07825e-05
-2.13464e-05
-2.18808e-05
-2.23868e-05
-2.28609e-05
-2.32988e-05
-2.37006e-05
-2.40683e-05
-2.44022e-05
-2.47022e-05
-2.49666e-05
-2.51947e-05
-2.53887e-05
-2.55502e-05
-2.56779e-05
-2.57712e-05
-2.58308e-05
-2.58581e-05
-2.58543e-05
-2.58189e-05
-2.57512e-05
-2.56512e-05
-2.55202e-05
-2.53593e-05
-2.51686e-05
-2.49475e-05
-2.46971e-05
-2.44212e-05
-2.41236e-05
-2.38061e-05
-2.3468e-05
-2.31083e-05
-2.27291e-05
-2.23332e-05
-2.19212e-05
-2.14914e-05
-2.10424e-05
-2.05758e-05
-2.00963e-05
-1.96094e-05
-1.91172e-05
-1.86182e-05
-1.81109e-05
-1.7597e-05
-1.70813e-05
-1.65675e-05
-1.60556e-05
-1.55427e-05
-1.50283e-05
-1.45172e-05
-1.40164e-05
-1.35317e-05
-1.30632e-05
-1.26082e-05
-1.2165e-05
-1.17347e-05
-1.13189e-05
-1.09186e-05
-1.05343e-05
-1.01678e-05
-9.82211e-06
-9.50141e-06
-9.20852e-06
-8.94439e-06
-8.70729e-06
-8.49342e-06
-8.30083e-06
-8.13272e-06
-7.99608e-06
-7.89669e-06
-7.83524e-06
-7.80897e-06
-7.81644e-06
-7.85949e-06
-7.94084e-06
-8.06149e-06
-8.2199e-06
-8.41323e-06
-8.63907e-06
-8.89684e-06
-9.18886e-06
-9.51966e-06
-9.89295e-06
-1.03083e-05
-1.07606e-05
-1.12439e-05
-1.17564e-05
-1.23018e-05
-1.28849e-05
-1.35078e-05
-1.41676e-05
-1.48592e-05
-1.55789e-05
-1.63247e-05
-1.70963e-05
-1.78938e-05
-1.87154e-05
-1.95579e-05
-2.04167e-05
-2.12866e-05
-2.21645e-05
-2.30504e-05
-2.3946e-05
-2.48511e-05
-2.57616e-05
-2.66693e-05
-2.75656e-05
-2.84446e-05
-2.93035e-05
-3.01438e-05
-3.09671e-05
-3.17718e-05
-3.25527e-05
-3.33012e-05
-3.4008e-05
-3.46674e-05
-3.5278e-05
-3.58396e-05
-3.63526e-05
-3.68162e-05
-3.72272e-05
-3.75788e-05
-3.78751e-05
-3.81246e-05
5.64624e-06
5.27897e-06
4.90465e-06
4.49468e-06
4.02532e-06
3.50014e-06
2.9276e-06
2.31398e-06
1.66124e-06
9.72051e-07
2.5102e-07
-4.99514e-07
-1.27351e-06
-2.06805e-06
-2.88438e-06
-3.71655e-06
-4.55748e-06
-5.40652e-06
-6.26203e-06
-7.11893e-06
-7.97622e-06
-8.83303e-06
-9.68553e-06
-1.05293e-05
-1.13633e-05
-1.21877e-05
-1.30006e-05
-1.37983e-05
-1.45785e-05
-1.53409e-05
-1.60843e-05
-1.68058e-05
-1.7503e-05
-1.81759e-05
-1.88252e-05
-1.94487e-05
-2.00443e-05
-2.06113e-05
-2.11488e-05
-2.16569e-05
-2.21338e-05
-2.25757e-05
-2.29822e-05
-2.33546e-05
-2.36932e-05
-2.39977e-05
-2.42681e-05
-2.45044e-05
-2.47077e-05
-2.48781e-05
-2.50142e-05
-2.51167e-05
-2.51885e-05
-2.52303e-05
-2.52404e-05
-2.52174e-05
-2.51617e-05
-2.50753e-05
-2.49597e-05
-2.48148e-05
-2.46395e-05
-2.44339e-05
-2.42012e-05
-2.39458e-05
-2.36698e-05
-2.33729e-05
-2.30547e-05
-2.27159e-05
-2.23592e-05
-2.19868e-05
-2.15977e-05
-2.11895e-05
-2.07619e-05
-2.03193e-05
-1.9867e-05
-1.94084e-05
-1.8943e-05
-1.84694e-05
-1.79883e-05
-1.75032e-05
-1.7018e-05
-1.65337e-05
-1.60488e-05
-1.55618e-05
-1.50745e-05
-1.45928e-05
-1.41234e-05
-1.36702e-05
-1.32327e-05
-1.2808e-05
-1.23946e-05
-1.19944e-05
-1.16094e-05
-1.124e-05
-1.08859e-05
-1.05483e-05
-1.02317e-05
-9.94127e-06
-9.67936e-06
-9.44442e-06
-9.2333e-06
-9.04378e-06
-8.87669e-06
-8.73617e-06
-8.62752e-06
-8.55431e-06
-8.51669e-06
-8.51262e-06
-8.54139e-06
-8.60527e-06
-8.70738e-06
-8.8483e-06
-9.02509e-06
-9.23363e-06
-9.47214e-06
-9.74244e-06
-1.00487e-05
-1.03949e-05
-1.07824e-05
-1.1209e-05
-1.16698e-05
-1.21604e-05
-1.268e-05
-1.32321e-05
-1.38211e-05
-1.44483e-05
-1.51103e-05
-1.58015e-05
-1.65188e-05
-1.72621e-05
-1.80326e-05
-1.88303e-05
-1.96521e-05
-2.04924e-05
-2.13458e-05
-2.22083e-05
-2.30785e-05
-2.39579e-05
-2.48487e-05
-2.57504e-05
-2.66578e-05
-2.75618e-05
-2.84532e-05
-2.93275e-05
-3.01841e-05
-3.10252e-05
-3.18523e-05
-3.26627e-05
-3.34511e-05
-3.42104e-05
-3.49322e-05
-3.56108e-05
-3.62444e-05
-3.6834e-05
-3.73809e-05
-3.78845e-05
-3.83408e-05
-3.8743e-05
-3.91027e-05
-3.94366e-05
6.81262e-06
6.34668e-06
5.89669e-06
5.42512e-06
4.90635e-06
4.34223e-06
3.73323e-06
3.08587e-06
2.40539e-06
1.69451e-06
9.55746e-07
1.8988e-07
-5.98062e-07
-1.4005e-06
-2.21972e-06
-3.05657e-06
-3.90262e-06
-4.75416e-06
-5.61109e-06
-6.46876e-06
-7.32419e-06
-8.17777e-06
-9.02615e-06
-9.86583e-06
-1.06963e-05
-1.15165e-05
-1.23231e-05
-1.31146e-05
-1.3891e-05
-1.46509e-05
-1.53907e-05
-1.61084e-05
-1.68041e-05
-1.74772e-05
-1.81264e-05
-1.875e-05
-1.93477e-05
-1.99194e-05
-2.04615e-05
-2.09713e-05
-2.14491e-05
-2.18943e-05
-2.23061e-05
-2.26839e-05
-2.30268e-05