/*--------------------------------*- C++ -*----------------------------------*\
  =========                 |
  \\      /  F ield         | OpenFOAM: The Open Source CFD Toolbox
   \\    /   O peration     | Website:  https://openfoam.org
    \\  /    A nd           | Version:  7
     \\/     M anipulation  |
\*---------------------------------------------------------------------------*/
FoamFile
{
    version     2.0;
    format      ascii;
    class       surfaceScalarField;
    location    "0.1375";
    object      phi;
}
// * * * * * * * * * * * * * * * * * * * * * * * * * * * * * * * * * * * * * //

dimensions      [0 3 -1 0 0 0 0];

internalField   nonuniform List<scalar> 
101920
(
2.77651e-13
2.10745e-13
5.33826e-13
-2.60035e-13
1.25158e-12
-7.16741e-13
2.14948e-12
-9.01486e-13
3.03152e-12
-8.83294e-13
3.7955e-12
-7.64462e-13
4.40499e-12
-6.09157e-13
4.84419e-12
-4.38623e-13
5.10401e-12
-2.56535e-13
5.18884e-12
-8.21429e-14
5.09985e-12
9.04267e-14
4.83317e-12
2.65085e-13
4.39203e-12
4.40539e-13
3.7785e-12
6.13836e-13
2.99626e-12
7.84389e-13
2.05085e-12
9.4695e-13
9.43499e-13
1.10795e-12
-3.2063e-13
1.26462e-12
-1.73168e-12
1.41287e-12
-3.2852e-12
1.55512e-12
-4.9754e-12
1.69118e-12
-6.79445e-12
1.81852e-12
-8.73585e-12
1.9393e-12
-1.07896e-11
2.05208e-12
-1.29471e-11
2.15581e-12
-1.52018e-11
2.25287e-12
-1.75469e-11
2.34401e-12
-1.99763e-11
2.42818e-12
-2.24813e-11
2.50417e-12
-2.50499e-11
2.56891e-12
-2.76727e-11
2.62296e-12
-3.03451e-11
2.67158e-12
-3.30624e-11
2.71667e-12
-3.58194e-11
2.75678e-12
-3.86102e-11
2.79078e-12
-4.14245e-11
2.81577e-12
-4.42513e-11
2.82877e-12
-4.70829e-11
2.83225e-12
-4.99141e-11
2.83122e-12
-5.27416e-11
2.82718e-12
-5.55609e-11
2.81825e-12
-5.83654e-11
2.80407e-12
-6.11501e-11
2.78504e-12
-6.39097e-11
2.76005e-12
-6.66383e-11
2.72908e-12
-6.93311e-11
2.69364e-12
-7.19839e-11
2.65416e-12
-7.45933e-11
2.61081e-12
-7.71559e-11
2.56377e-12
-7.96672e-11
2.51224e-12
-8.21239e-11
2.4566e-12
-8.45233e-11
2.39852e-12
-8.68622e-11
2.33821e-12
-8.91377e-11
2.27483e-12
-9.1347e-11
2.20854e-12
-9.34875e-11
2.1399e-12
-9.5557e-11
2.06905e-12
-9.75528e-11
1.99581e-12
-9.94729e-11
1.92024e-12
-1.01316e-10
1.84253e-12
-1.03079e-10
1.76266e-12
-1.04758e-10
1.68075e-12
-1.06354e-10
1.59737e-12
-1.07865e-10
1.51243e-12
-1.09289e-10
1.42549e-12
-1.10627e-10
1.33727e-12
-1.11876e-10
1.24838e-12
-1.13036e-10
1.15817e-12
-1.14103e-10
1.06631e-12
-1.15077e-10
9.73499e-13
-1.15958e-10
8.80692e-13
-1.16746e-10
7.88082e-13
-1.17441e-10
6.94537e-13
-1.18041e-10
5.99394e-13
-1.18545e-10
5.03391e-13
-1.1895e-10
4.06842e-13
-1.19257e-10
3.09442e-13
-1.19468e-10
2.11292e-13
-1.19581e-10
1.12663e-13
-1.19598e-10
1.40634e-14
-1.19517e-10
-8.38066e-14
-1.19338e-10
-1.8068e-13
-1.1906e-10
-2.76663e-13
-1.18686e-10
-3.72157e-13
-1.18216e-10
-4.67944e-13
-1.17651e-10
-5.64534e-13
-1.1699e-10
-6.61512e-13
-1.16233e-10
-7.57577e-13
-1.15383e-10
-8.51236e-13
-1.14442e-10
-9.41979e-13
-1.1341e-10
-1.0309e-12
-1.12289e-10
-1.11978e-12
-1.11079e-10
-1.20921e-12
-1.09781e-10
-1.29813e-12
-1.08396e-10
-1.38542e-12
-1.06925e-10
-1.47126e-12
-1.05368e-10
-1.55678e-12
-1.03725e-10
-1.64219e-12
-1.02e-10
-1.726e-12
-1.00193e-10
-1.80657e-12
-9.83089e-11
-1.88418e-12
-9.63483e-11
-1.96022e-12
-9.43128e-11
-2.03503e-12
-9.22052e-11
-2.10737e-12
-9.00296e-11
-2.17599e-12
-8.77892e-11
-2.24104e-12
-8.54862e-11
-2.30344e-12
-8.31225e-11
-2.36336e-12
-8.07012e-11
-2.42035e-12
-7.8226e-11
-2.47421e-12
-7.57008e-11
-2.52485e-12
-7.31294e-11
-2.57152e-12
-7.05163e-11
-2.61321e-12
-6.78659e-11
-2.64981e-12
-6.51823e-11
-2.68258e-12
-6.24687e-11
-2.71265e-12
-5.97287e-11
-2.73938e-12
-5.69671e-11
-2.76105e-12
-5.41897e-11
-2.77688e-12
-5.14018e-11
-2.78746e-12
-4.86082e-11
-2.79316e-12
-4.58144e-11
-2.79325e-12
-4.30274e-11
-2.78651e-12
-4.02545e-11
-2.77269e-12
-3.7502e-11
-2.75256e-12
-3.47758e-11
-2.72634e-12
-3.20829e-11
-2.69308e-12
-2.94307e-11
-2.65201e-12
-2.68266e-11
-2.60374e-12
-2.4277e-11
-2.5493e-12
-2.17889e-11
-2.48831e-12
-1.937e-11
-2.41924e-12
-1.70283e-11
-2.34169e-12
-1.47711e-11
-2.25695e-12
-1.26048e-11
-2.16619e-12
-1.05359e-11
-2.06868e-12
-8.57333e-12
-1.96245e-12
-6.72628e-12
-1.84676e-12
-5.00273e-12
-1.72315e-12
-3.40916e-12
-1.59335e-12
-1.95136e-12
-1.45759e-12
-6.35796e-13
-1.31517e-12
5.30672e-13
-1.16599e-12
1.54223e-12
-1.01104e-12
2.39386e-12
-8.51287e-13
3.08104e-12
-6.87186e-13
3.60099e-12
-5.19841e-13
3.95293e-12
-3.51514e-13
4.13804e-12
-1.84769e-13
4.15986e-12
-2.15036e-14
4.02354e-12
1.36734e-13
3.73732e-12
2.86442e-13
3.31604e-12
4.21204e-13
2.78237e-12
5.33273e-13
2.16823e-12
6.13617e-13
1.51768e-12
6.50431e-13
8.90015e-13
6.27837e-13
3.6539e-13
5.24588e-13
4.54551e-14
3.19521e-13
4.4766e-14
3.65369e-13
-1.58599e-13
1.19716e-12
-1.08601e-12
2.65357e-12
-2.17181e-12
4.49639e-12
-2.74006e-12
6.35346e-12
-2.73823e-12
7.97882e-12
-2.39127e-12
9.24987e-12
-1.88161e-12
1.01031e-11
-1.29547e-12
1.05118e-11
-6.70508e-13
1.04584e-11
-3.01904e-14
9.93161e-12
6.17923e-13
8.92887e-12
1.27001e-12
7.44661e-12
1.92108e-12
5.48817e-12
2.57042e-12
3.06016e-12
3.21061e-12
1.70507e-13
3.83632e-12
-3.16748e-12
4.4458e-12
-6.94213e-12
5.03722e-12
-1.11384e-11
5.60587e-12
-1.57355e-11
6.15126e-12
-2.0716e-11
6.67281e-12
-2.60607e-11
7.1664e-12
-3.17475e-11
7.63057e-12
-3.77568e-11
8.06493e-12
-4.40674e-11
8.46955e-12
-5.06551e-11
8.84405e-12
-5.74973e-11
9.18855e-12
-6.45721e-11
9.50412e-12
-7.18571e-11
9.79012e-12
-7.93319e-11
1.00437e-11
-8.69752e-11
1.02668e-11
-9.47658e-11
1.04642e-11
-1.02683e-10
1.06348e-11
-1.10705e-10
1.0778e-11
-1.18811e-10
1.08956e-11
-1.26982e-10
1.09849e-11
-1.35198e-10
1.10432e-11
-1.4344e-10
1.10742e-11
-1.5169e-10
1.10823e-11
-1.59931e-10
1.1069e-11
-1.68147e-10
1.10347e-11
-1.76321e-10
1.09794e-11
-1.84439e-10
1.0903e-11
-1.92486e-10
1.08061e-11
-2.00447e-10
1.06891e-11
-2.08308e-10
1.05537e-11
-2.16058e-10
1.04014e-11
-2.23683e-10
1.02345e-11
-2.31174e-10
1.00533e-11
-2.38518e-10
9.8568e-12
-2.45705e-10
9.64536e-12
-2.52726e-10
9.42104e-12
-2.59571e-10
9.18479e-12
-2.66232e-10
8.93686e-12
-2.727e-10
8.67816e-12
-2.78968e-10
8.4092e-12
-2.85029e-10
8.13024e-12
-2.90875e-10
7.84192e-12
-2.96498e-10
7.54454e-12
-3.01893e-10
7.23809e-12
-3.07054e-10
6.92317e-12
-3.11976e-10
6.60117e-12
-3.16656e-10
6.27352e-12
-3.21086e-10
5.94057e-12
-3.25262e-10
5.60171e-12
-3.29181e-10
5.25723e-12
-3.32838e-10
4.90786e-12
-3.36232e-10
4.55336e-12
-3.39359e-10
4.19387e-12
-3.42217e-10
3.83073e-12
-3.44801e-10
3.46519e-12
-3.4711e-10
3.0975e-12
-3.49141e-10
2.72637e-12
-3.50893e-10
2.35096e-12
-3.52366e-10
1.97285e-12
-3.53557e-10
1.59388e-12
-3.54465e-10
1.21467e-12
-3.55088e-10
8.35146e-13
-3.55426e-10
4.54217e-13
-3.5548e-10
7.11647e-14
-3.5525e-10
-3.12717e-13
-3.54737e-10
-6.95406e-13
-3.5394e-10
-1.07577e-12
-3.52861e-10
-1.45384e-12
-3.515e-10
-1.83043e-12
-3.49858e-10
-2.20602e-12
-3.47937e-10
-2.58038e-12
-3.4574e-10
-2.95263e-12
-3.43269e-10
-3.32134e-12
-3.40526e-10
-3.68501e-12
-3.37515e-10
-4.04322e-12
-3.34238e-10
-4.39706e-12
-3.30699e-10
-4.74795e-12
-3.26901e-10
-5.09602e-12
-3.22846e-10
-5.44011e-12
-3.18538e-10
-5.77923e-12
-3.13981e-10
-6.11336e-12
-3.0918e-10
-6.44275e-12
-3.04139e-10
-6.76637e-12
-2.98864e-10
-7.08221e-12
-2.9336e-10
-7.38921e-12
-2.87633e-10
-7.68758e-12
-2.81691e-10
-7.97737e-12
-2.75541e-10
-8.25756e-12
-2.69189e-10
-8.52678e-12
-2.62645e-10
-8.7847e-12
-2.55916e-10
-9.03191e-12
-2.49012e-10
-9.26813e-12
-2.41941e-10
-9.49197e-12
-2.34713e-10
-9.70229e-12
-2.27337e-10
-9.89861e-12
-2.19827e-10
-1.00804e-11
-2.12192e-10
-1.02468e-11
-2.04445e-10
-1.03967e-11
-1.96597e-10
-1.053e-11
-1.88661e-10
-1.06473e-11
-1.80651e-10
-1.07481e-11
-1.72581e-10
-1.08306e-11
-1.64464e-10
-1.0893e-11
-1.56316e-10
-1.09348e-11
-1.48153e-10
-1.09555e-11
-1.39992e-10
-1.09539e-11
-1.3185e-10
-1.09282e-11
-1.23746e-10
-1.08771e-11
-1.15698e-10
-1.08008e-11
-1.07725e-10
-1.06991e-11
-9.98472e-11
-1.05714e-11
-9.20837e-11
-1.04161e-11
-8.44548e-11
-1.02332e-11
-7.69811e-11
-1.0023e-11
-6.96835e-11
-9.78574e-12
-6.25829e-11
-9.51997e-12
-5.57e-11
-9.22461e-12
-4.90568e-11
-8.90003e-12
-4.26755e-11
-8.54725e-12
-3.65778e-11
-8.16622e-12
-3.07845e-11
-7.75566e-12
-2.53165e-11
-7.31475e-12
-2.01942e-11
-6.84483e-12
-1.54385e-11
-6.34839e-12
-1.10687e-11
-5.82703e-12
-7.10224e-12
-5.28141e-12
-3.55527e-12
-4.71268e-12
-4.42076e-13
-4.12353e-12
2.22559e-12
-3.51772e-12
4.43836e-12
-2.89917e-12
6.19095e-12
-2.27239e-12
7.48287e-12
-1.64339e-12
8.31823e-12
-1.02007e-12
8.70822e-12
-4.11615e-13
8.6733e-12
1.71694e-13
8.24372e-12
7.16218e-13
7.46271e-12
1.20264e-12
6.38995e-12
1.60645e-12
5.10536e-12
1.89778e-12
3.714e-12
2.04068e-12
2.34754e-12
1.99318e-12
1.16192e-12
1.70922e-12
3.25878e-13
1.15464e-12
3.70199e-13
3.26283e-13
-4.83845e-13
1.21393e-12
-1.97629e-12
2.77825e-12
-3.73934e-12
4.814e-12
-4.77771e-12
6.92711e-12
-4.8505e-12
8.80813e-12
-4.26964e-12
1.02465e-11
-3.31604e-12
1.11185e-11
-2.16514e-12
1.13521e-11
-9.03855e-13
1.08953e-11
4.24256e-13
9.72151e-12
1.79146e-12
7.81069e-12
3.18259e-12
5.15494e-12
4.57926e-12
1.75394e-12
5.9731e-12
-2.38769e-12
7.35233e-12
-7.25695e-12
8.70657e-12
-1.2836e-11
1.00279e-11
-1.91065e-11
1.13093e-11
-2.60436e-11
1.25433e-11
-3.36213e-11
1.37274e-11
-4.18101e-11
1.48583e-11
-5.05765e-11
1.59309e-11
-5.98892e-11
1.69418e-11
-6.97163e-11
1.78899e-11
-8.00222e-11
1.87745e-11
-9.07743e-11
1.95952e-11
-1.01938e-10
2.03514e-11
-1.13475e-10
2.10421e-11
-1.25351e-10
2.16659e-11
-1.37531e-10
2.22223e-11
-1.4998e-10
2.27152e-11
-1.62664e-10
2.31483e-11
-1.7555e-10
2.35217e-11
-1.88606e-10
2.38353e-11
-2.01797e-10
2.40891e-11
-2.15093e-10
2.42817e-11
-2.28464e-10
2.44142e-11
-2.41881e-10
2.44903e-11
-2.55314e-10
2.45144e-11
-2.68735e-10
2.44891e-11
-2.82116e-10
2.44164e-11
-2.95432e-10
2.42966e-11
-3.08659e-10
2.41307e-11
-3.21772e-10
2.39206e-11
-3.34749e-10
2.36678e-11
-3.47568e-10
2.33742e-11
-3.60208e-10
2.30425e-11
-3.72648e-10
2.26756e-11
-3.8487e-10
2.22752e-11
-3.96857e-10
2.18423e-11
-4.08591e-10
2.13784e-11
-4.20055e-10
2.08852e-11
-4.31236e-10
2.03643e-11
-4.42116e-10
1.98169e-11
-4.52683e-10
1.92448e-11
-4.62923e-10
1.86494e-11
-4.72824e-10
1.80317e-11
-4.82376e-10
1.73933e-11
-4.91567e-10
1.67354e-11
-5.00385e-10
1.60583e-11
-5.08822e-10
1.53629e-11
-5.1687e-10
1.46507e-11
-5.24519e-10
1.39236e-11
-5.31763e-10
1.31833e-11
-5.38594e-10
1.24308e-11
-5.45004e-10
1.16664e-11
-5.50988e-10
1.0891e-11
-5.5654e-10
1.01047e-11
-5.61654e-10
9.30845e-12
-5.66328e-10
8.50388e-12
-5.70556e-10
7.69267e-12
-5.74335e-10
6.87572e-12
-5.7766e-10
6.05252e-12
-5.80529e-10
5.2221e-12
-5.8294e-10
4.3854e-12
-5.84891e-10
3.54462e-12
-5.8638e-10
2.7018e-12
-5.87407e-10
1.85849e-12
-5.87971e-10
1.01469e-12
-5.88069e-10
1.69417e-13
-5.87703e-10
-6.7684e-13
-5.86874e-10
-1.5224e-12
-5.85583e-10
-2.36582e-12
-5.8383e-10
-3.20644e-12
-5.81618e-10
-4.04405e-12
-5.78947e-10
-4.87805e-12
-5.75822e-10
-5.7072e-12
-5.72244e-10
-6.53041e-12
-5.68217e-10
-7.34683e-12
-5.63745e-10
-8.15552e-12
-5.58833e-10
-8.95558e-12
-5.53483e-10
-9.74662e-12
-5.47703e-10
-1.05287e-11
-5.41497e-10
-1.13018e-11
-5.34872e-10
-1.20651e-11
-5.27833e-10
-1.28176e-11
-5.20389e-10
-1.35581e-11
-5.12546e-10
-1.42854e-11
-5.04314e-10
-1.49984e-11
-4.957e-10
-1.56954e-11
-4.86714e-10
-1.6375e-11
-4.77365e-10
-1.70362e-11
-4.67666e-10
-1.76776e-11
-4.57626e-10
-1.82977e-11
-4.47259e-10
-1.88948e-11
-4.36575e-10
-1.94677e-11
-4.25589e-10
-2.00162e-11
-4.14317e-10
-2.05397e-11
-4.02773e-10
-2.10363e-11
-3.90972e-10
-2.15036e-11
-3.78931e-10
-2.19397e-11
-3.66667e-10
-2.23433e-11
-3.542e-10
-2.2713e-11
-3.41548e-10
-2.30479e-11
-3.28731e-10
-2.33465e-11
-3.1577e-10
-2.36078e-11
-3.02687e-10
-2.38299e-11
-2.89506e-10
-2.40108e-11
-2.76251e-10
-2.41482e-11
-2.62944e-10
-2.42401e-11
-2.49615e-10
-2.42847e-11
-2.36288e-10
-2.42801e-11
-2.22992e-10
-2.42241e-11
-2.09755e-10
-2.41144e-11
-1.96606e-10
-2.39495e-11
-1.83576e-10
-2.37284e-11
-1.70697e-10
-2.345e-11
-1.58e-10
-2.3113e-11
-1.45518e-10
-2.27163e-11
-1.33282e-10
-2.22589e-11
-1.21328e-10
-2.17399e-11
-1.09689e-10
-2.11585e-11
-9.84003e-11
-2.05139e-11
-8.74944e-11
-1.9806e-11
-7.70066e-11
-1.90351e-11
-6.69717e-11
-1.82011e-11
-5.74233e-11
-1.7304e-11
-4.83939e-11
-1.63442e-11
-3.99151e-11
-1.53236e-11
-3.2018e-11
-1.42451e-11
-2.47325e-11
-1.31122e-11
-1.80854e-11
-1.19281e-11
-1.2101e-11
-1.06969e-11
-6.8004e-12
-9.42423e-12
-2.2003e-12
-8.11741e-12
1.68697e-12
-6.78566e-12
4.85499e-12
-5.43993e-12
7.30532e-12
-4.09324e-12
9.04747e-12
-2.76164e-12
1.01009e-11
-1.46475e-12
1.04985e-11
-2.26072e-13
1.02891e-11
9.25093e-13
9.53965e-12
1.95157e-12
8.33862e-12
2.80753e-12
6.7992e-12
3.43736e-12
5.06352e-12
3.776e-12
3.30434e-12
3.75149e-12
1.7209e-12
3.29146e-12
5.32227e-13
2.34226e-12
9.02161e-13
3.3444e-13
-8.19503e-13
1.18696e-12
-2.82614e-12
2.60405e-12
-5.15901e-12
4.43402e-12
-6.60645e-12
6.34531e-12
-6.76314e-12
8.00851e-12
-5.93573e-12
9.18264e-12
-4.49081e-12
9.69213e-12
-2.67254e-12
9.41238e-12
-6.22696e-13
8.26353e-12
1.57264e-12
6.18955e-12
3.86333e-12
3.16004e-12
6.21055e-12
-8.44434e-13
8.58449e-12
-5.83008e-12
1.0959e-11
-1.17938e-11
1.33157e-11
-1.87235e-11
1.5635e-11
-2.65976e-11
1.79012e-11
-3.53898e-11
2.01027e-11
-4.50717e-11
2.22272e-11
-5.56082e-11
2.42655e-11
-6.6961e-11
2.62128e-11
-7.90909e-11
2.8062e-11
-9.19545e-11
2.98062e-11
-1.05507e-10
3.14435e-11
-1.19703e-10
3.29713e-11
-1.34496e-10
3.43882e-11
-1.4984e-10
3.56951e-11
-1.65688e-10
3.68912e-11
-1.81997e-10
3.79748e-11
-1.98718e-10
3.89446e-11
-2.15806e-10
3.98025e-11
-2.3321e-10
4.05517e-11
-2.50884e-10
4.11947e-11
-2.68784e-10
4.17344e-11
-2.86866e-10
4.21722e-11
-3.05092e-10
4.25084e-11
-3.23422e-10
4.27446e-11
-3.41814e-10
4.28838e-11
-3.60231e-10
4.29299e-11
-3.78629e-10
4.2888e-11
-3.96975e-10
4.27618e-11
-4.15232e-10
4.25535e-11
-4.33368e-10
4.22659e-11
-4.5135e-10
4.19021e-11
-4.69148e-10
4.14648e-11
-4.86731e-10
4.09572e-11
-5.04071e-10
4.0383e-11
-5.21139e-10
3.97455e-11
-5.37911e-10
3.90476e-11
-5.5436e-10
3.82924e-11
-5.70464e-10
3.74827e-11
-5.86199e-10
3.66215e-11
-6.01546e-10
3.57114e-11
-6.16484e-10
3.47551e-11
-6.30994e-10
3.37546e-11
-6.45056e-10
3.27123e-11
-6.58654e-10
3.16302e-11
-6.71772e-10
3.0511e-11
-6.84395e-10
2.93574e-11
-6.96509e-10
2.81713e-11
-7.08101e-10
2.69547e-11
-7.19159e-10
2.57093e-11
-7.29671e-10
2.44364e-11
-7.39624e-10
2.31383e-11
-7.49011e-10
2.18177e-11
-7.57821e-10
2.04766e-11
-7.66047e-10
1.91163e-11
-7.7368e-10
1.77376e-11
-7.80713e-10
1.63417e-11
-7.87139e-10
1.49305e-11
-7.92952e-10
1.35058e-11
-7.98148e-10
1.20698e-11
-8.02722e-10
1.06243e-11
-8.0667e-10
9.16921e-12
-8.09989e-10
7.70495e-12
-8.12676e-10
6.23319e-12
-8.14728e-10
4.75583e-12
-8.16145e-10
3.27505e-12
-8.16924e-10
1.79262e-12
-8.17066e-10
3.09327e-13
-8.16571e-10
-1.17365e-12
-8.15439e-10
-2.65477e-12
-8.13672e-10
-4.13302e-12
-8.11269e-10
-5.60757e-12
-8.08235e-10
-7.07736e-12
-8.04573e-10
-8.54081e-12
-8.00285e-10
-9.9958e-12
-7.95376e-10
-1.14405e-11
-7.8985e-10
-1.28736e-11
-7.83711e-10
-1.42941e-11
-7.76965e-10
-1.57008e-11
-7.69619e-10
-1.70923e-11
-7.61681e-10
-1.84676e-11
-7.53157e-10
-1.98255e-11
-7.44057e-10
-2.11651e-11
-7.34389e-10
-2.2485e-11
-7.24164e-10
-2.37832e-11
-7.13392e-10
-2.50576e-11
-7.02085e-10
-2.63059e-11
-6.90255e-10
-2.75258e-11
-6.77914e-10
-2.87155e-11
-6.65076e-10
-2.98732e-11
-6.51757e-10
-3.09968e-11
-6.37971e-10
-3.20836e-11
-6.23736e-10
-3.3131e-11
-6.09067e-10
-3.41369e-11
-5.93984e-10
-3.50993e-11
-5.78507e-10
-3.60166e-11
-5.62656e-10
-3.68865e-11
-5.46454e-10
-3.77058e-11
-5.29922e-10
-3.84713e-11
-5.13086e-10
-3.91801e-11
-4.95969e-10
-3.98301e-11
-4.78597e-10
-4.04189e-11
-4.60999e-10
-4.0944e-11
-4.43204e-10
-4.14024e-11
-4.25243e-10
-4.17913e-11
-4.07146e-10
-4.21076e-11
-3.88946e-10
-4.23479e-11
-3.70677e-10
-4.25089e-11
-3.52374e-10
-4.25875e-11
-3.34073e-10
-4.25804e-11
-3.15813e-10
-4.24842e-11
-2.97631e-10
-4.22958e-11
-2.79569e-10
-4.20124e-11
-2.61665e-10
-4.16317e-11
-2.43963e-10
-4.11517e-11
-2.26506e-10
-4.05704e-11
-2.09336e-10
-3.98857e-11
-1.925e-10
-3.90955e-11
-1.76042e-10
-3.81982e-11
-1.60008e-10
-3.71928e-11
-1.44444e-10
-3.60785e-11
-1.29396e-10
-3.4855e-11
-1.14909e-10
-3.35224e-11
-1.01029e-10
-3.20813e-11
-8.78007e-11
-3.05327e-11
-7.52671e-11
-2.88781e-11
-6.34707e-11
-2.71205e-11
-5.24516e-11
-2.52644e-11
-4.22479e-11
-2.33159e-11
-3.28938e-11
-2.12819e-11
-2.44199e-11
-1.91703e-11
-1.6853e-11
-1.69911e-11
-1.02137e-11
-1.47567e-11
-4.51627e-12
-1.24828e-11
2.32567e-13
-1.01886e-11
4.03641e-12
-7.89692e-12
6.91002e-12
-5.63474e-12
8.88086e-12
-3.43504e-12
9.99262e-12
-1.3374e-12
1.03073e-11
6.10403e-13
9.90794e-12
2.35011e-12
8.90317e-12
3.8116e-12
7.42869e-12
4.91149e-12
5.65059e-12
5.55374e-12
3.7672e-12
5.63431e-12
2.00799e-12
5.04978e-12
6.37096e-13
3.71216e-12
1.53906e-12
3.82683e-13
-1.20229e-12
1.24427e-12
-3.68535e-12
2.49856e-12
-6.41256e-12
3.98196e-12
-8.08964e-12
5.44019e-12
-8.21945e-12
6.58059e-12
-7.07625e-12
7.15049e-12
-5.0623e-12
6.95207e-12
-2.47494e-12
5.84001e-12
4.9101e-13
3.70457e-12
3.71009e-12
4.7161e-13
7.09572e-12
-3.9061e-12
1.05884e-11
-9.45792e-12
1.41357e-11
-1.61933e-11
1.76957e-11
-2.41131e-11
2.12372e-11
-3.32073e-11
2.47286e-11
-4.34526e-11
2.81451e-11
-5.48204e-11
3.14691e-11
-6.72761e-11
3.46813e-11
-8.0777e-11
3.77665e-11
-9.52795e-11
4.07155e-11
-1.10736e-10
4.35182e-11
-1.27096e-10
4.61658e-11
-1.44305e-10
4.86535e-11
-1.62311e-10
5.09764e-11
-1.81053e-10
5.31309e-11
-2.00474e-10
5.51164e-11
-2.20517e-10
5.69329e-11
-2.41123e-10
5.8581e-11
-2.62238e-10
6.00606e-11
-2.83806e-10
6.13715e-11
-3.0577e-10
6.25161e-11
-3.28072e-10
6.34971e-11
-3.50655e-10
6.43178e-11
-3.73465e-10
6.49817e-11
-3.9645e-10
6.54927e-11
-4.19559e-10
6.58542e-11
-4.42745e-10
6.60702e-11
-4.65959e-10
6.61445e-11
-4.89153e-10
6.60826e-11
-5.12281e-10
6.58898e-11
-5.35298e-10
6.5571e-11
-5.58161e-10
6.51304e-11
-5.80831e-10
6.45727e-11
-6.03269e-10
6.39025e-11
-6.25437e-10
6.31251e-11
-6.473e-10
6.22455e-11
-6.68823e-10
6.12682e-11
-6.89973e-10
6.01975e-11
-7.10719e-10
5.90382e-11
-7.3103e-10
5.77944e-11
-7.50878e-10
5.64702e-11
-7.70237e-10
5.50702e-11
-7.8908e-10
5.35985e-11
-8.07384e-10
5.20589e-11
-8.25127e-10
5.04549e-11
-8.42285e-10
4.87898e-11
-8.58839e-10
4.70665e-11
-8.7477e-10
4.52888e-11
-8.90059e-10
4.34606e-11
-9.0469e-10
4.15856e-11
-9.18648e-10
3.96665e-11
-9.31918e-10
3.77057e-11
-9.44485e-10
3.57057e-11
-9.56337e-10
3.36699e-11
-9.67462e-10
3.16013e-11
-9.77848e-10
2.95026e-11
-9.87487e-10
2.73761e-11
-9.96369e-10
2.5224e-11
-1.00449e-09
2.30485e-11
-1.01183e-09
2.08516e-11
-1.0184e-09
1.86355e-11
-1.02418e-09
1.64032e-11
-1.02917e-09
1.41569e-11
-1.03336e-09
1.18985e-11
-1.03676e-09
9.63029e-12
-1.03936e-09
7.35381e-12
-1.04115e-09
5.07068e-12
-1.04214e-09
2.78334e-12
-1.04233e-09
4.94296e-13
-1.04171e-09
-1.79403e-12
-1.04028e-09
-4.07938e-12
-1.03806e-09
-6.36022e-12
-1.03503e-09
-8.63514e-12
-1.03121e-09
-1.09023e-11
-1.02659e-09
-1.31594e-11
-1.02118e-09
-1.5404e-11
-1.01498e-09
-1.76337e-11
-1.00801e-09
-1.98461e-11
-1.00027e-09
-2.20395e-11
-9.91757e-10
-2.42119e-11
-9.82488e-10
-2.63612e-11
-9.7247e-10
-2.84851e-11
-9.61714e-10
-3.05816e-11
-9.50231e-10
-3.26486e-11
-9.38031e-10
-3.46843e-11
-9.25128e-10
-3.66859e-11
-9.11535e-10
-3.86502e-11
-8.97267e-10
-4.0574e-11
-8.82339e-10
-4.24541e-11
-8.66767e-10
-4.42877e-11
-8.50569e-10
-4.60716e-11
-8.33763e-10
-4.78025e-11
-8.16369e-10
-4.9477e-11
-7.98408e-10
-5.10918e-11
-7.79902e-10
-5.26433e-11
-7.60874e-10
-5.4128e-11
-7.41348e-10
-5.55425e-11
-7.21352e-10
-5.6883e-11
-7.00912e-10
-5.81454e-11
-6.80058e-10
-5.93256e-11
-6.58819e-10
-6.04193e-11
-6.37227e-10
-6.14226e-11
-6.15314e-10
-6.23316e-11
-5.93116e-10
-6.31422e-11
-5.70669e-10
-6.38497e-11
-5.48011e-10
-6.44494e-11
-5.25181e-10
-6.49369e-11
-5.02221e-10
-6.53077e-11
-4.79173e-10
-6.55571e-11
-4.5608e-10
-6.56802e-11
-4.32988e-10
-6.5672e-11
-4.09944e-10
-6.55279e-11
-3.86996e-10
-6.52435e-11
-3.64193e-10
-6.48147e-11
-3.41587e-10
-6.42378e-11
-3.1923e-10
-6.35094e-11
-2.97174e-10
-6.26263e-11
-2.75474e-10
-6.15856e-11
-2.54185e-10
-6.03843e-11
-2.33364e-10
-5.902e-11
-2.13065e-10
-5.74914e-11
-1.93347e-10
-5.57975e-11
-1.74264e-10
-5.39381e-11
-1.55874e-10
-5.19134e-11
-1.38232e-10
-4.97245e-11
-1.21391e-10
-4.73738e-11
-1.05405e-10
-4.48647e-11
-9.03235e-11
-4.22022e-11
-7.61958e-11
-3.93928e-11
-6.30668e-11
-3.64454e-11
-5.09778e-11
-3.33711e-11
-3.99647e-11
-3.01831e-11
-3.00584e-11
-2.68971e-11
-2.12825e-11
-2.35325e-11
-1.36522e-11
-2.01127e-11
-7.17402e-12
-1.66664e-11
-1.84305e-12
-1.32278e-11
2.35932e-12
-9.83699e-12
5.46653e-12
-6.54218e-12
7.53034e-12
-3.40098e-12
8.62285e-12
-4.81741e-13
8.83855e-12
2.13421e-12
8.29839e-12
4.35107e-12
7.15204e-12
6.05715e-12
5.58047e-12
7.12467e-12
3.79937e-12
7.41497e-12
2.06068e-12
6.78805e-12
6.62179e-13
5.1101e-12
2.20115e-12
4.24318e-13
-1.62712e-12
1.26976e-12
-4.53201e-12
2.32296e-12
-7.46457e-12
3.39395e-12
-9.16242e-12
4.2592e-12
-9.08245e-12
4.67229e-12
-7.4879e-12
4.39752e-12
-4.78816e-12
3.23672e-12
-1.316e-12
1.03306e-12
2.69417e-12
-2.33414e-12
7.0775e-12
-6.95158e-12
1.17146e-11
-1.28806e-11
1.65167e-11
-2.01562e-11
2.14105e-11
-2.87965e-11
2.6336e-11
-3.8802e-11
3.12437e-11
-5.0163e-11
3.6091e-11
-6.28587e-11
4.08418e-11
-7.68571e-11
4.54671e-11
-9.21194e-11
4.99431e-11
-1.086e-10
5.42471e-11
-1.26247e-10
5.83631e-11
-1.45007e-10
6.22778e-11
-1.6482e-10
6.59794e-11
-1.85626e-10
6.94596e-11
-2.07363e-10
7.2713e-11
-2.29965e-10
7.57337e-11
-2.53366e-10
7.85179e-11
-2.77498e-10
8.10643e-11
-3.02291e-10
8.33738e-11
-3.27678e-10
8.54479e-11
-3.53594e-10
8.72872e-11
-3.79972e-10
8.88948e-11
-4.06748e-10
9.02739e-11
-4.33858e-10
9.14274e-11
-4.61235e-10
9.23593e-11
-4.88817e-10
9.30756e-11
-5.16545e-10
9.35818e-11
-5.44359e-10
9.3884e-11
-5.72203e-10
9.3988e-11
-6.0002e-10
9.38999e-11
-6.27757e-10
9.36265e-11
-6.55361e-10
9.31749e-11
-6.82781e-10
9.25512e-11
-7.0997e-10
9.17617e-11
-7.3688e-10
9.08132e-11
-7.63467e-10
8.97125e-11
-7.89688e-10
8.84666e-11
-8.15501e-10
8.70819e-11
-8.40868e-10
8.55648e-11
-8.65751e-10
8.39218e-11
-8.90115e-10
8.21587e-11
-9.13926e-10
8.02811e-11
-9.37151e-10
7.82951e-11
-9.59758e-10
7.62062e-11
-9.81719e-10
7.40201e-11
-1.00301e-09
7.17426e-11
-1.0236e-09
6.93786e-11
-1.04346e-09
6.69323e-11
-1.06258e-09
6.44084e-11
-1.08093e-09
6.1812e-11
-1.09849e-09
5.91478e-11
-1.11525e-09
5.64205e-11
-1.13117e-09
5.36339e-11
-1.14626e-09
5.07923e-11
-1.16049e-09
4.78994e-11
-1.17385e-09
4.49591e-11
-1.18632e-09
4.19748e-11
-1.19789e-09
3.89504e-11
-1.20856e-09
3.58898e-11
-1.21831e-09
3.27965e-11
-1.22713e-09
2.96735e-11
-1.23502e-09
2.65233e-11
-1.24196e-09
2.33487e-11
-1.24796e-09
2.01532e-11
-1.253e-09
1.69405e-11
-1.25709e-09
1.37141e-11
-1.26021e-09
1.04769e-11
-1.26237e-09
7.23059e-12
-1.26357e-09
3.9781e-12
-1.26379e-09
7.22989e-13
-1.26306e-09
-2.53153e-12
-1.26135e-09
-5.78265e-12
-1.25869e-09
-9.02787e-12
-1.25506e-09
-1.22645e-11
-1.25047e-09
-1.54893e-11
-1.24493e-09
-1.86994e-11
-1.23845e-09
-2.18917e-11
-1.23102e-09
-2.50635e-11
-1.22265e-09
-2.82115e-11
-1.21336e-09
-3.13327e-11
-1.20315e-09
-3.44241e-11
-1.19202e-09
-3.74825e-11
-1.18e-09
-4.05047e-11
-1.1671e-09
-4.34876e-11
-1.15332e-09
-4.64281e-11
-1.13868e-09
-4.9323e-11
-1.1232e-09
-5.21685e-11
-1.10689e-09
-5.49602e-11
-1.08977e-09
-5.7694e-11
-1.07185e-09
-6.0366e-11
-1.05317e-09
-6.2972e-11
-1.03373e-09
-6.55073e-11
-1.01357e-09
-6.79671e-11
-9.92701e-10
-7.03464e-11
-9.71152e-10
-7.26408e-11
-9.48949e-10
-7.48458e-11
-9.26121e-10
-7.69564e-11
-9.02697e-10
-7.89669e-11
-8.78708e-10
-8.08721e-11
-8.54188e-10
-8.26661e-11
-8.2917e-10
-8.43435e-11
-8.03691e-10
-8.58985e-11
-7.77789e-10
-8.73253e-11
-7.51503e-10
-8.86181e-11
-7.24874e-10
-8.9771e-11
-6.97947e-10
-9.07776e-11
-6.70765e-10
-9.16313e-11
-6.43376e-10
-9.23257e-11
-6.15829e-10
-9.28546e-11
-5.88174e-10
-9.32118e-11
-5.60463e-10
-9.33907e-11
-5.32751e-10
-9.33845e-11
-5.05092e-10
-9.31867e-11
-4.77543e-10
-9.27915e-11
-4.50164e-10
-9.21935e-11
-4.23013e-10
-9.13874e-11
-3.96154e-10
-9.03683e-11
-3.69649e-10
-8.91316e-11
-3.43562e-10
-8.76732e-11
-3.17956e-10
-8.59896e-11
-2.92899e-10
-8.40776e-11
-2.68455e-10
-8.19354e-11
-2.44691e-10
-7.9562e-11
-2.21673e-10
-7.69574e-11
-1.99465e-10
-7.41223e-11
-1.78132e-10
-7.10584e-11
-1.57737e-10
-6.77693e-11
-1.38341e-10
-6.4261e-11
-1.20002e-10
-6.05412e-11
-1.02776e-10
-5.66196e-11
-8.67131e-11
-5.25086e-11
-7.1861e-11
-4.82236e-11
-5.82606e-11
-4.37835e-11
-4.59461e-11
-3.92113e-11
-3.4944e-11
-3.45345e-11
-2.52705e-11
-2.97858e-11
-1.69318e-11
-2.50046e-11
-9.92161e-12
-2.02376e-11
-4.21882e-12
-1.55395e-11
2.13953e-13
-1.09751e-11
3.43334e-12
-6.62073e-12
5.51809e-12
-2.56641e-12
6.57009e-12
1.08236e-12
6.7179e-12
4.20307e-12
6.11934e-12
6.65528e-12
4.96391e-12
8.27948e-12
3.47746e-12
8.90094e-12
1.92627e-12
8.33913e-12
6.28022e-13
6.40832e-12
2.82921e-12
4.14437e-13
-2.04134e-12
1.16998e-12
-5.28737e-12
1.95278e-12
-8.24544e-12
2.52827e-12
-9.74017e-12
2.69579e-12
-9.25009e-12
2.2423e-12
-7.03287e-12
9.55697e-13
-3.4997e-12
-1.35443e-12
9.9411e-13
-4.84405e-12
6.1819e-12
-9.63449e-12
1.18684e-11
-1.58212e-11
1.79016e-11
-2.34667e-11
2.41632e-11
-3.26159e-11
3.05599e-11
-4.32903e-11
3.70089e-11
-5.54913e-11
4.34443e-11
-6.9211e-11
4.98107e-11
-8.4427e-11
5.60573e-11
-1.01104e-10
6.21454e-11
-1.19204e-10
6.80425e-11
-1.38676e-10
7.37187e-11
-1.59463e-10
7.9151e-11
-1.81506e-10
8.43212e-11
-2.0474e-10
8.9213e-11
-2.29095e-10
9.38144e-11
-2.545e-10
9.81179e-11
-2.80883e-10
1.02117e-10
-3.0817e-10
1.05806e-10
-3.36286e-10
1.09181e-10
-3.65156e-10
1.12243e-10
-3.947e-10
1.14992e-10
-4.24843e-10
1.1743e-10
-4.55508e-10
1.19561e-10
-4.86623e-10
1.21389e-10
-5.18113e-10
1.22918e-10
-5.49907e-10
1.24154e-10
-5.81934e-10
1.25103e-10
-6.14125e-10
1.25773e-10
-6.46411e-10
1.2617e-10
-6.78727e-10
1.26304e-10
-7.11008e-10
1.26182e-10
-7.43193e-10
1.25812e-10
-7.75222e-10
1.25204e-10
-8.07038e-10
1.24366e-10
-8.38583e-10
1.23307e-10
-8.69805e-10
1.22036e-10
-9.00652e-10
1.2056e-10
-9.31075e-10
1.1889e-10
-9.61026e-10
1.17033e-10
-9.90459e-10
1.14998e-10
-1.01933e-09
1.12794e-10
-1.0476e-09
1.10429e-10
-1.07523e-09
1.0791e-10
-1.10218e-09
1.05246e-10
-1.12842e-09
1.02443e-10
-1.1539e-09
9.95083e-11
-1.17861e-09
9.64502e-11
-1.20251e-09
9.32752e-11
-1.22556e-09
8.99899e-11
-1.24776e-09
8.66008e-11
-1.26906e-09
8.31143e-11
-1.28945e-09
7.95359e-11
-1.3089e-09
7.58715e-11
-1.32739e-09
7.21272e-11
-1.34491e-09
6.83087e-11
-1.36143e-09
6.44214e-11
-1.37694e-09
6.047e-11
-1.39142e-09
5.64592e-11
-1.40487e-09
5.2394e-11
-1.41726e-09
4.82791e-11
-1.42858e-09
4.41197e-11
-1.43883e-09
3.99205e-11
-1.44799e-09
3.56853e-11
-1.45606e-09
3.14177e-11
-1.46303e-09
2.7122e-11
-1.46889e-09
2.28025e-11
-1.47364e-09
1.84639e-11
-1.47727e-09
1.411e-11
-1.47979e-09
9.74423e-12
-1.48118e-09
5.37075e-12
-1.48145e-09
9.94019e-13
-1.4806e-09
-3.38213e-12
-1.47863e-09
-7.75425e-12
-1.47554e-09
-1.21188e-11
-1.47133e-09
-1.64719e-11
-1.46601e-09
-2.08091e-11
-1.45959e-09
-2.51262e-11
-1.45206e-09
-2.94195e-11
-1.44344e-09
-3.36851e-11
-1.43373e-09
-3.79192e-11
-1.42294e-09
-4.21174e-11
-1.41109e-09
-4.62755e-11
-1.39819e-09
-5.03889e-11
-1.38424e-09
-5.44535e-11
-1.36926e-09
-5.84652e-11
-1.35327e-09
-6.24195e-11
-1.33628e-09
-6.63118e-11
-1.31831e-09
-7.01367e-11
-1.29938e-09
-7.38889e-11
-1.27951e-09
-7.75628e-11
-1.25873e-09
-8.11535e-11
-1.23704e-09
-8.46553e-11
-1.21449e-09
-8.80621e-11
-1.19109e-09
-9.13673e-11
-1.16687e-09
-9.45646e-11
-1.14186e-09
-9.76477e-11
-1.1161e-09
-1.00611e-10
-1.08961e-09
-1.03446e-10
-1.06243e-09
-1.06148e-10
-1.03459e-09
-1.08708e-10
-1.00614e-09
-1.11119e-10
-9.77108e-10
-1.13373e-10
-9.47544e-10
-1.15463e-10
-9.17488e-10
-1.17382e-10
-8.86986e-10
-1.1912e-10
-8.56086e-10
-1.20671e-10
-8.24839e-10
-1.22025e-10
-7.93296e-10
-1.23175e-10
-7.61511e-10
-1.24111e-10
-7.2954e-10
-1.24826e-10
-6.9744e-10
-1.25311e-10
-6.65272e-10
-1.25558e-10
-6.33098e-10
-1.25558e-10
-6.00982e-10
-1.25303e-10
-5.68988e-10
-1.24785e-10
-5.37183e-10
-1.23997e-10
-5.05637e-10
-1.22933e-10
-4.7442e-10
-1.21585e-10
-4.43603e-10
-1.19948e-10
-4.13259e-10
-1.18017e-10
-3.83461e-10
-1.15787e-10
-3.54285e-10
-1.13254e-10
-3.25804e-10
-1.10417e-10
-2.98093e-10
-1.07273e-10
-2.71226e-10
-1.03824e-10
-2.45278e-10
-1.00071e-10
-2.20319e-10
-9.60174e-11
-1.96421e-10
-9.16676e-11
-1.73653e-10
-8.703e-11
-1.52079e-10
-8.21156e-11
-1.31761e-10
-7.69381e-11
-1.12755e-10
-7.15145e-11
-9.51135e-11
-6.58652e-11
-7.88815e-11
-6.00156e-11
-6.40965e-11
-5.39962e-11
-5.07875e-11
-4.78436e-11
-3.89724e-11
-4.1601e-11
-2.86575e-11
-3.53192e-11
-1.98359e-11
-2.90588e-11
-1.2485e-11
-2.289e-11
-6.56488e-12
-1.68949e-11
-2.01658e-12
-1.11694e-11
1.24181e-12
-5.82519e-12
3.31604e-12
-9.91928e-13
4.33842e-12
3.18075e-12
4.47068e-12
6.52307e-12
3.90619e-12
8.84384e-12
2.87473e-12
9.93214e-12
1.64823e-12
9.56568e-12
5.51074e-13
7.50584e-12
3.38044e-12
3.55743e-13
-2.39735e-12
9.27679e-13
-5.85998e-12
1.34292e-12
-8.65774e-12
1.33622e-12
-9.73383e-12
7.14115e-13
-8.63022e-12
-7.15895e-13
-5.60343e-12
-3.14152e-12
-1.07233e-12
-6.74006e-12
4.59287e-12
-1.16598e-11
1.1102e-11
-1.80229e-11
1.82302e-11
-2.59206e-11
2.57989e-11
-3.54199e-11
3.36637e-11
-4.65649e-11
4.17059e-11
-5.938e-11
4.98243e-11
-7.38698e-11
5.7934e-11
-9.00244e-11
6.59643e-11
-1.0782e-10
7.38526e-11
-1.27221e-10
8.15469e-11
-1.48184e-10
8.90053e-11
-1.70657e-10
9.61909e-11
-1.94578e-10
1.03072e-10
-2.19883e-10
1.09626e-10
-2.46501e-10
1.15832e-10
-2.74359e-10
1.21672e-10
-3.03376e-10
1.27135e-10
-3.33473e-10
1.32213e-10
-3.64567e-10
1.369e-10
-3.96577e-10
1.41191e-10
-4.29419e-10
1.45085e-10
-4.63008e-10
1.48581e-10
-4.9726e-10
1.51683e-10
-5.32092e-10
1.54392e-10
-5.67418e-10
1.56716e-10
-6.03159e-10
1.58659e-10
-6.39233e-10
1.60229e-10
-6.75563e-10
1.61433e-10
-7.12071e-10
1.6228e-10
-7.48681e-10
1.6278e-10
-7.85319e-10
1.62942e-10
-8.21914e-10
1.62777e-10
-8.58396e-10
1.62295e-10
-8.94699e-10
1.61507e-10
-9.30757e-10
1.60424e-10
-9.66508e-10
1.59058e-10
-1.00189e-09
1.57419e-10
-1.03685e-09
1.55518e-10
-1.07132e-09
1.53366e-10
-1.10527e-09
1.50974e-10
-1.13862e-09
1.48354e-10
-1.17134e-09
1.45515e-10