/*--------------------------------*- C++ -*----------------------------------*\
  =========                 |
  \\      /  F ield         | OpenFOAM: The Open Source CFD Toolbox
   \\    /   O peration     | Website:  https://openfoam.org
    \\  /    A nd           | Version:  7
     \\/     M anipulation  |
\*---------------------------------------------------------------------------*/
FoamFile
{
    version     2.0;
    format      ascii;
    class       volScalarField;
    location    "0.3125";
    object      p;
}
// * * * * * * * * * * * * * * * * * * * * * * * * * * * * * * * * * * * * * //

dimensions      [0 2 -2 0 0 0 0];

internalField   nonuniform List<scalar> 
51200
(
-1.35942e-06
-3.15803e-06
-2.32547e-06
6.10636e-07
5.26746e-06
1.13469e-05
1.86418e-05
2.6846e-05
3.56827e-05
4.49568e-05
5.44742e-05
6.40365e-05
7.3454e-05
8.26116e-05
9.14185e-05
9.97759e-05
0.000107584
0.000114767
0.000121275
0.000127052
0.000132048
0.000136223
0.000139542
0.000141973
0.000143489
0.000144068
0.000143691
0.000142342
0.00014002
0.000136732
0.000132486
0.000127285
0.00012113
0.000114019
0.000105955
9.69446e-05
8.7002e-05
7.61429e-05
6.43819e-05
5.173e-05
3.81968e-05
2.37953e-05
8.54401e-06
-7.53451e-06
-2.44144e-05
-4.20692e-05
-6.04755e-05
-7.96138e-05
-9.94683e-05
-0.000120025
-0.000141267
-0.000163171
-0.000185712
-0.000208862
-0.000232596
-0.00025689
-0.000281728
-0.000307092
-0.000332964
-0.000359324
-0.000386148
-0.000413411
-0.000441091
-0.000469167
-0.000497616
-0.000526417
-0.000555549
-0.000584987
-0.000614704
-0.000644676
-0.000674878
-0.000705288
-0.000735882
-0.000766637
-0.000797531
-0.000828542
-0.000859647
-0.000890823
-0.000922052
-0.000953315
-0.000984596
-0.00101588
-0.00104714
-0.00107835
-0.0011095
-0.00114056
-0.00117149
-0.0012023
-0.00123294
-0.00126339
-0.00129365
-0.00132367
-0.00135344
-0.00138292
-0.0014121
-0.00144095
-0.00146945
-0.00149756
-0.00152527
-0.00155256
-0.0015794
-0.00160577
-0.00163167
-0.00165706
-0.00168193
-0.00170627
-0.00173003
-0.0017532
-0.00177576
-0.00179767
-0.00181892
-0.0018395
-0.00185936
-0.00187851
-0.0018969
-0.00191452
-0.00193136
-0.0019474
-0.0019626
-0.00197696
-0.00199044
-0.00200304
-0.00201474
-0.00202553
-0.00203539
-0.00204433
-0.00205232
-0.00205936
-0.00206545
-0.00207058
-0.00207474
-0.00207794
-0.00208017
-0.00208143
-0.00208175
-0.00208111
-0.00207955
-0.00207708
-0.00207373
-0.00206952
-0.00206448
-0.00205865
-0.00205208
-0.00204482
-0.00203696
-0.00202856
-0.00201969
-0.00201043
-0.00200092
-0.00199131
-0.00198174
-0.00197239
-0.00196344
-0.00195514
-0.00194774
-0.0019415
-0.00193667
-0.00193353
-0.00193238
-0.00193297
-1.98918e-06
-2.74274e-06
-1.72421e-06
9.26268e-07
4.90675e-06
1.01435e-05
1.64663e-05
2.35931e-05
3.13205e-05
3.94937e-05
4.79031e-05
5.63591e-05
6.4719e-05
7.2883e-05
8.07458e-05
8.82024e-05
9.51666e-05
0.000101566
0.00010735
0.00011246
0.000116842
0.000120455
0.000123267
0.000125245
0.000126358
0.000126583
0.000125898
0.000124286
0.000121745
0.000118282
0.000113905
0.000108613
0.000102401
9.52689e-05
8.72175e-05
7.82547e-05
6.8393e-05
5.76459e-05
4.60242e-05
3.35361e-05
2.01903e-05
5.99988e-06
-9.01693e-06
-2.48377e-05
-4.14368e-05
-5.87889e-05
-7.68726e-05
-9.56719e-05
-0.000115173
-0.000135362
-0.000156221
-0.000177729
-0.000199858
-0.000222584
-0.000245881
-0.000269729
-0.000294111
-0.00031901
-0.000344408
-0.000370285
-0.000396618
-0.000423384
-0.00045056
-0.000478125
-0.00050606
-0.000534342
-0.00056295
-0.000591858
-0.000621043
-0.000650478
-0.000680141
-0.000710009
-0.000740058
-0.000770266
-0.00080061
-0.000831068
-0.000861617
-0.000892237
-0.000922909
-0.000953617
-0.000984344
-0.00101507
-0.00104578
-0.00107644
-0.00110703
-0.00113754
-0.00116792
-0.00119817
-0.00122827
-0.00125818
-0.00128789
-0.00131737
-0.00134661
-0.00137556
-0.00140421
-0.00143254
-0.00146052
-0.00148812
-0.00151532
-0.0015421
-0.00156844
-0.00159433
-0.00161975
-0.00164468
-0.00166909
-0.00169298
-0.0017163
-0.00173905
-0.00176119
-0.0017827
-0.00180356
-0.00182376
-0.00184328
-0.00186208
-0.00188015
-0.00189747
-0.00191403
-0.00192981
-0.00194477
-0.00195891
-0.0019722
-0.00198463
-0.0019962
-0.00200688
-0.00201666
-0.00202554
-0.00203352
-0.00204059
-0.00204673
-0.00205196
-0.00205626
-0.00205963
-0.00206208
-0.00206361
-0.00206423
-0.00206395
-0.00206279
-0.00206078
-0.00205794
-0.00205429
-0.00204986
-0.00204472
-0.00203889
-0.00203243
-0.00202538
-0.00201786
-0.00200996
-0.00200173
-0.00199327
-0.00198474
-0.00197629
-0.00196808
-0.00196024
-0.00195298
-0.00194655
-0.00194116
-0.00193697
-0.00193415
-0.00193299
-0.00193358
-3.34287e-06
-3.9348e-06
-2.89715e-06
-4.28682e-07
3.24282e-06
7.99984e-06
1.36737e-05
2.00745e-05
2.70504e-05
3.44339e-05
4.20175e-05
4.9645e-05
5.72084e-05
6.46075e-05
7.17308e-05
7.84782e-05
8.47781e-05
9.05601e-05
9.57626e-05
0.000100331
0.000104214
0.000107368
0.000109763
0.000111367
0.000112145
0.00011207
0.000111121
0.000109284
0.000106559
0.00010295
9.84598e-05
9.30841e-05
8.68176e-05
7.9658e-05
7.16088e-05
6.26794e-05
5.28806e-05
4.22213e-05
3.07082e-05
1.83478e-05
5.14988e-06
-8.872e-06
-2.36995e-05
-3.93096e-05
-5.56772e-05
-7.27793e-05
-9.0598e-05
-0.000109119
-0.00012833
-0.000148217
-0.000168761
-0.000189941
-0.000211728
-0.000234099
-0.000257032
-0.000280508
-0.00030451
-0.000329022
-0.000354026
-0.0003795
-0.000405422
-0.000431769
-0.000458522
-0.000485659
-0.000513162
-0.000541008
-0.000569176
-0.000597641
-0.000626378
-0.000655363
-0.000684572
-0.000713983
-0.000743574
-0.000773321
-0.000803202
-0.000833195
-0.000863277
-0.000893428
-0.000923632
-0.000953872
-0.000984132
-0.00101439
-0.00104463
-0.00107483
-0.00110496
-0.00113499
-0.00116491
-0.0011947
-0.00122434
-0.00125379
-0.00128305
-0.00131208
-0.00134086
-0.00136936
-0.00139757
-0.00142546
-0.001453
-0.00148017
-0.00150694
-0.00153331
-0.00155924
-0.00158472
-0.00160974
-0.00163427
-0.00165831
-0.00168182
-0.00170478
-0.00172717
-0.00174896
-0.00177014
-0.00179069
-0.00181059
-0.0018298
-0.00184832
-0.00186613
-0.00188321
-0.00189954
-0.0019151
-0.00192987
-0.00194383
-0.00195697
-0.00196927
-0.00198072
-0.00199132
-0.00200105
-0.0020099
-0.00201788
-0.00202497
-0.00203117
-0.00203648
-0.0020409
-0.00204442
-0.00204705
-0.00204881
-0.00204969
-0.00204971
-0.00204889
-0.00204725
-0.00204483
-0.00204164
-0.00203771
-0.0020331
-0.00202787
-0.00202205
-0.00201568
-0.00200885
-0.00200167
-0.00199422
-0.00198657
-0.00197885
-0.00197122
-0.00196381
-0.00195677
-0.00195024
-0.00194441
-0.00193953
-0.00193573
-0.00193312
-0.00193197
-0.00193256
-6.49603e-06
-6.79994e-06
-5.66366e-06
-3.17082e-06
4.15517e-07
4.91666e-06
1.02073e-05
1.61643e-05
2.26381e-05
2.94495e-05
3.64213e-05
4.34324e-05
5.03884e-05
5.71885e-05
6.37233e-05
6.99062e-05
7.56724e-05
8.09512e-05
8.56735e-05
8.97867e-05
9.32478e-05
9.60148e-05
9.80538e-05
9.93338e-05
9.98206e-05
9.94839e-05
9.83039e-05
9.6271e-05
9.33829e-05
8.96413e-05
8.50453e-05
7.95891e-05
7.32667e-05
6.60769e-05
5.80247e-05
4.91185e-05
3.93665e-05
2.8775e-05
1.73491e-05
5.0938e-06
-7.98215e-06
-2.18638e-05
-3.65315e-05
-5.19626e-05
-6.81329e-05
-8.50213e-05
-0.000102612
-0.000120895
-0.000139857
-0.000159485
-0.000179757
-0.000200652
-0.000222143
-0.000244207
-0.000266823
-0.000289976
-0.000313648
-0.000337823
-0.000362482
-0.000387603
-0.000413164
-0.000439145
-0.000465528
-0.000492291
-0.000519415
-0.000546879
-0.000574661
-0.000602736
-0.00063108
-0.000659668
-0.000688478
-0.000717488
-0.000746674
-0.000776015
-0.000805487
-0.000835068
-0.000864738
-0.000894477
-0.000924269
-0.000954097
-0.000983946
-0.0010138
-0.00104363
-0.00107341
-0.00110312
-0.00113275
-0.00116226
-0.00119164
-0.00122087
-0.00124992
-0.00127877
-0.0013074
-0.00133579
-0.0013639
-0.00139172
-0.00141922
-0.00144638
-0.00147317
-0.00149957
-0.00152557
-0.00155114
-0.00157626
-0.00160093
-0.00162513
-0.00164883
-0.00167202
-0.00169466
-0.00171674
-0.00173824
-0.00175914
-0.00177941
-0.00179904
-0.001818
-0.00183628
-0.00185386
-0.00187073
-0.00188687
-0.00190224
-0.00191685
-0.00193067
-0.00194368
-0.00195587
-0.00196724
-0.00197776
-0.00198745
-0.00199628
-0.00200426
-0.00201138
-0.00201764
-0.00202303
-0.00202756
-0.00203122
-0.00203402
-0.00203597
-0.00203707
-0.00203735
-0.00203682
-0.00203552
-0.00203345
-0.00203065
-0.00202716
-0.00202299
-0.00201822
-0.00201291
-0.00200711
-0.00200086
-0.00199426
-0.0019874
-0.00198036
-0.00197326
-0.00196622
-0.00195938
-0.00195288
-0.00194685
-0.00194143
-0.00193677
-0.00193306
-0.00193051
-0.00192924
-0.00192955
-1.1425e-05
-1.11576e-05
-9.64506e-06
-6.97203e-06
-3.36316e-06
1.03002e-06
6.11923e-06
1.1788e-05
1.78755e-05
2.42221e-05
3.07022e-05
3.72163e-05
4.36619e-05
4.99437e-05
5.59702e-05
6.16629e-05
6.69576e-05
7.17848e-05
7.60744e-05
7.9775e-05
8.28496e-05
8.52589e-05
8.69676e-05
8.79441e-05
8.8156e-05
8.75736e-05
8.61769e-05
8.39575e-05
8.09132e-05
7.70424e-05
7.23404e-05
6.68006e-05
6.04192e-05
5.31966e-05
4.51375e-05
3.6249e-05
2.65365e-05
1.60032e-05
4.65218e-06
-7.51065e-06
-2.04752e-05
-3.42264e-05
-4.87451e-05
-6.40088e-05
-7.99951e-05
-9.66851e-05
-0.000114066
-0.000132126
-0.000150855
-0.000170238
-0.000190253
-0.000210879
-0.000232089
-0.000253862
-0.00027618
-0.000299027
-0.000322386
-0.00034624
-0.00037057
-0.000395355
-0.000420574
-0.000446207
-0.000472236
-0.000498642
-0.000525406
-0.000552506
-0.000579919
-0.000607621
-0.000635588
-0.000663797
-0.000692224
-0.000720848
-0.000749647
-0.000778597
-0.000807676
-0.000836864
-0.000866139
-0.000895483
-0.00092488
-0.000954314
-0.000983769
-0.00101323
-0.00104266
-0.00107205
-0.00110137
-0.0011306
-0.00115972
-0.00118871
-0.00121754
-0.00124621
-0.00127468
-0.00130292
-0.00133093
-0.00135867
-0.00138612
-0.00141325
-0.00144004
-0.00146647
-0.00149252
-0.00151816
-0.00154338
-0.00156817
-0.00159251
-0.00161639
-0.00163977
-0.00166265
-0.00168499
-0.00170678
-0.001728
-0.00174863
-0.00176864
-0.00178802
-0.00180674
-0.0018248
-0.00184217
-0.00185884
-0.0018748
-0.00189001
-0.00190446
-0.00191814
-0.00193104
-0.00194314
-0.00195442
-0.0019649
-0.00197454
-0.00198337
-0.00199135
-0.0019985
-0.00200482
-0.00201029
-0.00201492
-0.00201872
-0.00202168
-0.00202381
-0.00202513
-0.00202566
-0.00202541
-0.0020244
-0.00202266
-0.00202022
-0.00201712
-0.00201338
-0.00200904
-0.00200417
-0.00199885
-0.00199312
-0.00198703
-0.00198067
-0.00197415
-0.00196757
-0.00196101
-0.0019546
-0.00194847
-0.00194277
-0.00193762
-0.0019331
-0.00192939
-0.00192666
-0.00192505
-0.00192476
-1.78703e-05
-1.6734e-05
-1.4651e-05
-1.16936e-05
-7.94859e-06
-3.5071e-06
1.5293e-06
7.02005e-06
1.28248e-05
1.88268e-05
2.4934e-05
3.10512e-05
3.70745e-05
4.2919e-05
4.85146e-05
5.3788e-05
5.86696e-05
6.30943e-05
6.69979e-05
7.03293e-05
7.30543e-05
7.51382e-05
7.65455e-05
7.72432e-05
7.71997e-05
7.63873e-05
7.47872e-05
7.23925e-05
6.91995e-05
6.5203e-05
6.03961e-05
5.4773e-05
4.83317e-05
4.10744e-05
3.30051e-05
2.41284e-05
1.44473e-05
3.96282e-06
-7.32292e-06
-1.94043e-05
-3.22701e-05
-4.59035e-05
-6.02844e-05
-7.53921e-05
-9.12072e-05
-0.000107714
-0.000124901
-0.000142757
-0.00016127
-0.000180424
-0.000200199
-0.00022057
-0.000241516
-0.000263017
-0.000285055
-0.000307614
-0.000330678
-0.00035423
-0.00037825
-0.000402717
-0.000427611
-0.000452916
-0.000478612
-0.000504681
-0.000531104
-0.000557858
-0.000584922
-0.00061227
-0.000639879
-0.000667727
-0.00069579
-0.000724047
-0.000752476
-0.000781054
-0.000809761
-0.000838573
-0.000867473
-0.000896442
-0.000925463
-0.000954523
-0.000983603
-0.00101268
-0.00104174
-0.00107075
-0.0010997
-0.00112855
-0.00115729
-0.00118591
-0.00121438
-0.00124268
-0.00127078
-0.00129866
-0.00132631
-0.00135369
-0.00138078
-0.00140757
-0.00143401
-0.0014601
-0.00148581
-0.00151112
-0.00153602
-0.00156049
-0.00158451
-0.00160808
-0.00163117
-0.00165376
-0.00167582
-0.00169734
-0.00171829
-0.00173867
-0.00175844
-0.00177758
-0.00179609
-0.00181394
-0.00183111
-0.0018476
-0.00186339
-0.00187845
-0.00189276
-0.00190632
-0.00191911
-0.00193112
-0.00194235
-0.00195277
-0.00196239
-0.0019712
-0.0019792
-0.00198639
-0.00199276
-0.00199831
-0.00200305
-0.00200697
-0.00201009
-0.0020124
-0.00201391
-0.00201467
-0.00201468
-0.00201395
-0.00201251
-0.00201039
-0.00200764
-0.00200428
-0.00200033
-0.00199586
-0.00199095
-0.00198565
-0.00197999
-0.00197406
-0.00196797
-0.0019618
-0.00195563
-0.00194955
-0.00194367
-0.00193816
-0.00193313
-0.00192862
-0.00192477
-0.00192173
-0.00191961
-0.00191848
-2.54379e-05
-2.32978e-05
-2.05575e-05
-1.71928e-05
-1.31635e-05
-8.55606e-06
-3.48541e-06
1.9141e-06
7.54863e-06
1.33286e-05
1.91678e-05
2.49769e-05
3.06648e-05
3.61611e-05
4.14051e-05
4.63273e-05
5.08541e-05
5.49246e-05
5.84869e-05
6.14945e-05
6.39118e-05
6.57066e-05
6.68444e-05
6.72906e-05
6.70129e-05
6.59872e-05
6.4198e-05
6.16385e-05
5.83041e-05
5.41868e-05
4.92785e-05
4.35745e-05
3.70753e-05
2.97833e-05
2.17009e-05
1.28298e-05
3.17107e-06
-7.27497e-06
-1.85062e-05
-3.05162e-05
-4.32932e-05
-5.68199e-05
-7.10764e-05
-8.6043e-05
-0.000101703
-0.000118042
-0.000135052
-0.00015272
-0.000171034
-0.000189978
-0.000209529
-0.000229667
-0.000250368
-0.000271615
-0.000293392
-0.000315684
-0.000338473
-0.000361741
-0.00038547
-0.00040964
-0.000434233
-0.00045923
-0.000484615
-0.000510369
-0.000536472
-0.000562902
-0.000589636
-0.000616651
-0.000643923
-0.00067143
-0.000699151
-0.000727063
-0.000755144
-0.000783373
-0.000811727
-0.000840186
-0.000868732
-0.000897347
-0.000926015
-0.000954721
-0.000983447
-0.00101217
-0.00104087
-0.00106953
-0.00109812
-0.00112662
-0.00115501
-0.00118328
-0.0012114
-0.00123935
-0.0012671
-0.00129464
-0.00132195
-0.001349
-0.00137576
-0.00140221
-0.00142833
-0.0014541
-0.00147949
-0.00150449
-0.00152908
-0.00155326
-0.00157699
-0.00160028
-0.00162309
-0.00164541
-0.00166721
-0.00168847
-0.00170918
-0.00172932
-0.00174887
-0.0017678
-0.0017861
-0.00180376
-0.00182076
-0.00183708
-0.00185272
-0.00186764
-0.00188183
-0.00189528
-0.00190798
-0.00191991
-0.00193107
-0.00194146
-0.00195105
-0.00195986
-0.00196788
-0.0019751
-0.00198153
-0.00198716
-0.001992
-0.00199604
-0.0019993
-0.00200177
-0.00200348
-0.00200445
-0.00200468
-0.00200421
-0.00200305
-0.00200122
-0.00199877
-0.00199573
-0.00199213
-0.00198802
-0.00198345
-0.00197851
-0.00197322
-0.00196764
-0.00196188
-0.001956
-0.00195011
-0.00194428
-0.00193857
-0.00193313
-0.00192805
-0.00192344
-0.00191935
-0.00191591
-0.00191315
-0.00191102
-3.38459e-05
-3.06529e-05
-2.71711e-05
-2.32852e-05
-1.88684e-05
-1.40241e-05
-8.8488e-06
-3.44516e-06
2.12433e-06
7.78203e-06
1.3438e-05
1.90184e-05
2.44519e-05
2.96783e-05
3.46379e-05
3.92661e-05
4.3492e-05
4.72605e-05
5.05284e-05
5.32551e-05
5.54044e-05
5.69441e-05
5.78402e-05
5.80569e-05
5.75638e-05
5.63418e-05
5.43787e-05
5.16666e-05
4.8198e-05
4.39646e-05
3.89598e-05
3.31797e-05
2.66249e-05
1.92978e-05
1.11992e-05
2.32838e-06
-7.31576e-06
-1.77334e-05
-2.8921e-05
-4.08701e-05
-5.35679e-05
-6.69975e-05
-8.11405e-05
-9.59792e-05
-0.000111499
-0.000127688
-0.000144537
-0.000162034
-0.000180166
-0.000198915
-0.000218261
-0.000238181
-0.000258657
-0.00027967
-0.000301206
-0.000323248
-0.000345781
-0.000368785
-0.000392243
-0.000416136
-0.000440447
-0.000465159
-0.000490254
-0.000515714
-0.000541517
-0.000567642
-0.000594068
-0.00062077
-0.000647726
-0.000674913
-0.000702312
-0.0007299
-0.000757655
-0.000785554
-0.000813577
-0.000841704
-0.000869917
-0.0008982
-0.000926536
-0.00095491
-0.000983303
-0.00101169
-0.00104006
-0.00106838
-0.00109664
-0.0011248
-0.00115287
-0.0011808
-0.00120859
-0.00123621
-0.00126365
-0.00129087
-0.00131786
-0.00134459
-0.00137104
-0.00139718
-0.001423
-0.00144846
-0.00147355
-0.00149826
-0.00152257
-0.00154647
-0.00156994
-0.00159296
-0.00161551
-0.00163758
-0.00165913
-0.00168016
-0.00170065
-0.00172057
-0.00173991
-0.00175865
-0.00177676
-0.00179425
-0.00181109
-0.00182726
-0.00184275
-0.00185755
-0.00187163
-0.00188499
-0.0018976
-0.00190947
-0.00192058
-0.00193093
-0.00194051
-0.00194932
-0.00195736
-0.00196462
-0.00197111
-0.00197681
-0.00198175
-0.00198591
-0.00198929
-0.00199192
-0.00199381
-0.00199496
-0.0019954
-0.00199515
-0.00199424
-0.00199269
-0.0019905
-0.00198773
-0.00198443
-0.00198062
-0.00197636
-0.0019717
-0.0019667
-0.00196141
-0.00195591
-0.00195026
-0.00194454
-0.00193883
-0.00193321
-0.00192775
-0.00192254
-0.00191771
-0.0019133
-0.00190937
-0.00190587
-0.00190266
-4.28907e-05
-3.85817e-05
-3.42799e-05
-2.9807e-05
-2.49598e-05
-1.98301e-05
-1.44789e-05
-8.97746e-06
-3.38503e-06
2.22566e-06
7.77464e-06
1.32036e-05
1.84585e-05
2.34824e-05
2.82155e-05
3.25994e-05
3.65743e-05
4.00914e-05
4.31114e-05
4.55979e-05
4.75143e-05
4.88281e-05
4.95053e-05
4.95122e-05
4.88227e-05
4.7422e-05
4.53001e-05
4.24472e-05
3.88533e-05
3.45102e-05
2.94137e-05
2.35615e-05
1.69539e-05
9.59135e-06
1.47259e-06
-7.40421e-06
-1.70409e-05
-2.74377e-05
-3.85899e-05
-5.04873e-05
-6.31158e-05
-7.64586e-05
-9.04991e-05
-0.000105222
-0.000120616
-0.00013667
-0.000153374
-0.000170717
-0.000188682
-0.000207253
-0.000226409
-0.00024613
-0.000266397
-0.000287195
-0.000308508
-0.000330321
-0.000352615
-0.000375374
-0.000398581
-0.000422217
-0.000446267
-0.000470713
-0.000495538
-0.000520723
-0.000546246
-0.000572087
-0.000598223
-0.000624632
-0.000651292
-0.000678181
-0.000705278
-0.000732563
-0.000760012
-0.000787603
-0.000815316
-0.000843131
-0.000871032
-0.000899003
-0.000927028
-0.000955091
-0.000983171
-0.00101125
-0.0010393
-0.00106731
-0.00109525
-0.0011231
-0.00115085
-0.00117848
-0.00120596
-0.00123328
-0.00126041
-0.00128733
-0.00131402
-0.00134046
-0.00136661
-0.00139247
-0.001418
-0.00144318
-0.001468
-0.00149244
-0.00151648
-0.00154012
-0.00156334
-0.00158611
-0.00160843
-0.00163026
-0.00165159
-0.00167241
-0.00169268
-0.00171241
-0.00173155
-0.00175011
-0.00176806
-0.00178539
-0.00180208
-0.00181812
-0.00183349
-0.00184817
-0.00186215
-0.00187542
-0.00188796
-0.00189977
-0.00191085
-0.00192117
-0.00193074
-0.00193956
-0.00194762
-0.00195492
-0.00196146
-0.00196724
-0.00197227
-0.00197653
-0.00198004
-0.00198281
-0.00198486
-0.00198619
-0.00198682
-0.00198676
-0.00198607
-0.00198476
-0.00198282
-0.00198029
-0.00197722
-0.00197367
-0.00196966
-0.00196524
-0.00196045
-0.00195536
-0.00195005
-0.00194457
-0.00193896
-0.00193329
-0.00192767
-0.00192214
-0.00191673
-0.00191158
-0.00190674
-0.00190227
-0.00189798
-0.00189364
-5.23377e-05
-4.68693e-05
-4.17295e-05
-3.66569e-05
-3.13467e-05
-2.58679e-05
-2.02649e-05
-1.45963e-05
-8.91919e-06
-3.29474e-06
2.21716e-06
7.56796e-06
1.27113e-05
1.75908e-05
2.21505e-05
2.63394e-05
3.01099e-05
3.34193e-05
3.62311e-05
3.8513e-05
4.02289e-05
4.13435e-05
4.1824e-05
4.16414e-05
4.07753e-05
3.92139e-05
3.69469e-05
3.39631e-05
3.02521e-05
2.58069e-05
2.06248e-05
1.47047e-05
8.04613e-06
6.47344e-07
-7.49521e-06
-1.63844e-05
-2.60213e-05
-3.64047e-05
-4.75278e-05
-5.93799e-05
-7.19471e-05
-8.52137e-05
-9.91645e-05
-0.000113787
-0.000129069
-0.000145002
-0.000161576
-0.000178778
-0.000196592
-0.000215
-0.000233983
-0.000253522
-0.0002736
-0.0002942
-0.000315308
-0.000336908
-0.000358983
-0.000381516
-0.000404491
-0.000427891
-0.000451699
-0.000475898
-0.000500472
-0.0005254
-0.000550663
-0.000576238
-0.000602105
-0.000628242
-0.000654627
-0.000681237
-0.000708054
-0.000735054
-0.000762217
-0.00078952
-0.000816943
-0.000844467
-0.000872076
-0.000899756
-0.00092749
-0.000955261
-0.000983049
-0.00101083
-0.00103859
-0.0010663
-0.00109395
-0.00112151
-0.00114897
-0.00117631
-0.0012035
-0.00123054
-0.00125738
-0.00128402
-0.00131044
-0.0013366
-0.00136248
-0.00138807
-0.00141333
-0.00143825
-0.00146281
-0.001487
-0.0015108
-0.0015342
-0.00155718
-0.00157973
-0.00160183
-0.00162345
-0.00164457
-0.00166519
-0.00168528
-0.00170482
-0.00172379
-0.00174218
-0.00175998
-0.00177716
-0.00179372
-0.00180964
-0.0018249
-0.00183948
-0.00185338
-0.00186657
-0.00187905
-0.00189082
-0.00190185
-0.00191215
-0.00192172
-0.00193055
-0.00193863
-0.00194597
-0.00195257
-0.00195843
-0.00196354
-0.0019679
-0.00197153
-0.00197442
-0.00197661
-0.00197811
-0.00197891
-0.00197904
-0.00197853
-0.00197741
-0.00197569
-0.00197337
-0.00197051
-0.00196716
-0.00196336
-0.00195913
-0.00195452
-0.00194957
-0.00194437
-0.00193897
-0.00193341
-0.00192774
-0.00192203
-0.00191634
-0.0019107
-0.00190518
-0.00189985
-0.00189478
-0.00188965
-0.00188417
-6.19782e-05
-5.53597e-05
-4.93977e-05
-4.37227e-05
-3.79093e-05
-3.20203e-05
-2.61096e-05
-2.02238e-05
-1.44115e-05
-8.71457e-06
-3.17772e-06
2.15482e-06
7.23796e-06
1.20215e-05
1.64558e-05
2.04976e-05
2.41083e-05
2.7251e-05
2.98919e-05
3.20006e-05
3.35419e-05
3.44797e-05
3.47845e-05
3.44337e-05
3.34119e-05
3.1707e-05
2.93075e-05
2.62023e-05
2.23827e-05
1.78429e-05
1.25812e-05
6.59644e-06
-1.12889e-07
-7.55003e-06
-1.572e-05
-2.46261e-05
-3.42688e-05
-4.46448e-05
-5.57462e-05
-6.75613e-05
-8.00766e-05
-9.32773e-05
-0.00010715
-0.000121684
-0.000136869
-0.000152695
-0.000169152
-0.000186227
-0.000203904
-0.000222165
-0.000240992
-0.000260366
-0.00028027
-0.00030069
-0.000321611
-0.000343017
-0.000364891
-0.000387217
-0.00040998
-0.000433162
-0.000456747
-0.000480719
-0.000505059
-0.00052975
-0.000554771
-0.0005801
-0.000605718
-0.000631602
-0.000657731
-0.000684084
-0.00071064
-0.000737377
-0.000764274
-0.000791308
-0.00081846
-0.000845713
-0.000873051
-0.000900459
-0.000927922
-0.000955421
-0.000982937
-0.00101045
-0.00103793
-0.00106537
-0.00109274
-0.00112003
-0.00114722
-0.00117429
-0.00120122
-0.00122798
-0.00125457
-0.00128095
-0.0013071
-0.00133301
-0.00135864
-0.00138398
-0.00140899
-0.00143367
-0.00145799
-0.00148195
-0.00150552
-0.0015287
-0.00155147
-0.00157382
-0.00159571
-0.00161713
-0.00163807
-0.0016585
-0.00167842
-0.00169779
-0.00171661
-0.00173485
-0.00175251
-0.00176956
-0.00178601
-0.00180182
-0.00181698
-0.00183148
-0.00184529
-0.00185842
-0.00187085
-0.00188258
-0.00189359
-0.00190387
-0.00191344
-0.00192228
-0.00193039
-0.00193777
-0.00194443
-0.00195036
-0.00195555
-0.00196
-0.00196374
-0.00196676
-0.00196907
-0.0019707
-0.00197166
-0.00197196
-0.00197161
-0.00197066
-0.00196911
-0.00196698
-0.0019643
-0.00196111
-0.00195746
-0.00195337
-0.00194888
-0.00194405
-0.00193891
-0.00193353
-0.00192795
-0.00192223
-0.00191636
-0.00191045
-0.00190452
-0.00189859
-0.00189275
-0.00188705
-0.00188108
-0.00187447
-7.16981e-05
-6.39662e-05
-5.71743e-05
-5.0867e-05
-4.45175e-05
-3.81865e-05
-3.19366e-05
-2.57951e-05
-1.97963e-05
-1.39699e-05
-8.35532e-06
-2.995e-06
2.06925e-06
6.79808e-06
1.1149e-05
1.5086e-05
1.85772e-05
2.15908e-05
2.40952e-05
2.60588e-05
2.74477e-05
2.82296e-05
2.83801e-05
2.78823e-05
2.6723e-05
2.48895e-05
2.23698e-05
1.91533e-05
1.52333e-05
1.0606e-05
5.26991e-06
-7.7643e-07
-7.53615e-06
-1.50141e-05
-2.32157e-05
-3.2144e-05
-4.1798e-05
-5.21728e-05
-6.32591e-05
-7.50448e-05
-8.75171e-05
-0.000100662
-0.000114468
-0.000128926
-0.000144027
-0.00015976
-0.000176114
-0.000193076
-0.00021063
-0.000228758
-0.000247444
-0.000266669
-0.000286417
-0.000306675
-0.000327426
-0.000348656
-0.000370347
-0.000392485
-0.000415053
-0.000438036
-0.000461416
-0.000485178
-0.000509305
-0.000533777
-0.000558575
-0.000583678
-0.000609066
-0.000634717
-0.000660611
-0.000686726
-0.000713041
-0.000739534
-0.000766183
-0.000792967
-0.000819868
-0.00084687
-0.000873957
-0.000901115
-0.000928326
-0.000955573
-0.000982835
-0.00101009
-0.00103732
-0.0010645
-0.00109162
-0.00111866
-0.0011456
-0.00117242
-0.0011991
-0.00122562
-0.00125196
-0.0012781
-0.00130402
-0.00132969
-0.00135509
-0.00138019
-0.00140498
-0.00142943
-0.00145354
-0.00147728
-0.00150065
-0.00152363
-0.0015462
-0.00156835
-0.00159006
-0.0016113
-0.00163207
-0.00165234
-0.0016721
-0.00169132
-0.00171
-0.00172811
-0.00174564
-0.00176259
-0.00177892
-0.00179464
-0.00180972
-0.00182414
-0.00183789
-0.00185096
-0.00186335
-0.00187505
-0.00188603
-0.00189631
-0.00190589
-0.00191475
-0.00192289
-0.00193031
-0.00193702
-0.00194301
-0.00194828
-0.00195282
-0.00195666
-0.00195979
-0.00196223
-0.00196397
-0.00196506
-0.0019655
-0.00196532
-0.00196451
-0.0019631
-0.00196111
-0.00195857
-0.00195551
-0.00195198
-0.00194801
-0.00194361
-0.00193882
-0.0019337
-0.00192829
-0.00192264
-0.0019168
-0.00191076
-0.00190458
-0.00189831
-0.00189195
-0.00188557
-0.00187923
-0.00187242
-0.00186469
-8.1364e-05
-7.25504e-05
-6.49227e-05
-5.79615e-05
-5.10595e-05
-4.42711e-05
-3.76549e-05
-3.12229e-05
-2.4996e-05
-1.9001e-05
-1.32713e-05
-7.84646e-06
-2.76315e-06
1.9482e-06
6.2541e-06
1.01246e-05
1.35325e-05
1.64494e-05
1.88448e-05
2.06866e-05
2.1944e-05
2.25909e-05
2.26088e-05
2.1984e-05
2.07036e-05
1.87544e-05
1.61249e-05
1.28064e-05
8.79415e-06
4.08598e-06
-1.31943e-06
-7.42484e-06
-1.42355e-05
-2.17574e-05
-2.99955e-05
-3.89512e-05
-4.8622e-05
-5.90013e-05
-7.00788e-05
-8.18423e-05
-9.42798e-05
-0.000107379
-0.00012113
-0.000135525
-0.000150553
-0.000166205
-0.000182469
-0.000199332
-0.000216776
-0.000234787
-0.000253347
-0.00027244
-0.000292049
-0.000312161
-0.00033276
-0.00035383
-0.000375357
-0.000397324
-0.000419717
-0.000442518
-0.000465712
-0.000489283
-0.000513214
-0.000537486
-0.000562079
-0.000586975
-0.000612153
-0.000637591
-0.000663269
-0.000689164
-0.000715257
-0.000741524
-0.000767945
-0.000794499
-0.000821169
-0.000847939
-0.000874795
-0.000901722
-0.000928702
-0.000955716
-0.000982743
-0.00100976
-0.00103676
-0.0010637
-0.00109059
-0.0011174
-0.00114411
-0.0011707
-0.00119715
-0.00122344
-0.00124956
-0.00127548
-0.00130118
-0.00132663
-0.00135182
-0.0013767
-0.00140128
-0.00142553
-0.00144944
-0.00147299
-0.00149617
-0.00151897
-0.00154136
-0.00156334
-0.00158488
-0.00160596
-0.00162657
-0.0016467
-0.00166631
-0.0016854
-0.00170395
-0.00172195
-0.00173937
-0.00175622
-0.00177246
-0.0017881
-0.0018031
-0.00181746
-0.00183115
-0.00184419
-0.00185654
-0.00186821
-0.00187918
-0.00188946
-0.00189905
-0.00190793
-0.0019161
-0.00192357
-0.00193033
-0.00193638
-0.00194172
-0.00194635
-0.00195027
-0.00195351
-0.00195606
-0.00195792
-0.00195911
-0.00195968
-0.00195963
-0.00195895
-0.00195767
-0.0019558
-0.00195337
-0.00195041
-0.00194694
-0.00194303
-0.00193868
-0.00193393
-0.00192879
-0.00192332
-0.00191755
-0.00191153
-0.0019053
-0.00189882
-0.00189217
-0.00188536
-0.00187843
-0.00187144
-0.0018638
-0.00185499
-9.08313e-05
-8.09606e-05
-7.25121e-05
-6.49022e-05
-5.74473e-05
-5.01873e-05
-4.3176e-05
-3.6422e-05
-2.99378e-05
-2.37494e-05
-1.78805e-05
-1.23626e-05
-7.22698e-06
-2.49881e-06
1.79654e-06
5.63416e-06
8.98966e-06
1.18364e-05
1.41446e-05
1.58843e-05
1.70307e-05
1.75641e-05
1.74703e-05
1.67363e-05
1.53484e-05
1.32946e-05
1.05651e-05
7.15374e-06
3.05698e-06
-1.72607e-06
-7.19727e-06
-1.3361e-05
-2.02242e-05
-2.77935e-05
-3.60725e-05
-4.50604e-05
-5.47527e-05
-6.51413e-05
-7.62155e-05
-8.79636e-05
-0.000100375
-0.000113438
-0.000127146
-0.000141488
-0.000156457
-0.000172041
-0.000188227
-0.000205003
-0.000222353
-0.000240261
-0.000258711
-0.000277688
-0.000297174
-0.000317156
-0.000337619
-0.000358548
-0.000379928
-0.000401743
-0.000423977
-0.000446615
-0.00046964
-0.000493038
-0.000516791
-0.000540882
-0.00056529
-0.000589998
-0.000614984
-0.000640228
-0.000665707
-0.000691402
-0.00071729
-0.00074335
-0.000769562
-0.000795905
-0.000822363
-0.000848921
-0.000875566
-0.000902282
-0.000929049
-0.000955849
-0.000982661
-0.00100946
-0.00103624
-0.00106297
-0.00108965
-0.00111624
-0.00114274
-0.00116912
-0.00119537
-0.00122146
-0.00124737
-0.00127309
-0.00129859
-0.00132384
-0.00134882
-0.00137352
-0.00139791
-0.00142197
-0.00144569
-0.00146907
-0.00149208
-0.00151472
-0.00153695
-0.00155877
-0.00158016
-0.0016011
-0.00162157
-0.00164156
-0.00166106
-0.00168003
-0.00169847
-0.00171636
-0.00173369
-0.00175045
-0.00176662
-0.00178218
-0.00179712
-0.00181142
-0.00182508
-0.00183808
-0.0018504
-0.00186206
-0.00187303
-0.00188331
-0.00189291
-0.00190182
-0.00191002
-0.00191753
-0.00192435
-0.00193046
-0.00193587
-0.00194058
-0.00194458
-0.00194791
-0.00195055
-0.00195252
-0.00195382
-0.00195449
-0.00195454
-0.00195397
-0.00195279
-0.00195101
-0.00194867
-0.00194579
-0.00194238
-0.00193849
-0.00193414
-0.00192938
-0.0019242
-0.00191864
-0.00191275
-0.00190651
-0.00190002
-0.00189324
-0.0018862
-0.00187891
-0.00187143
-0.00186379
-0.00185533
-0.00184546
-9.99686e-05
-8.9082e-05
-7.98419e-05
-7.15988e-05
-6.35903e-05
-5.58474e-05
-4.84237e-05
-4.13282e-05
-3.45689e-05
-2.8165e-05
-2.21352e-05
-1.65006e-05
-1.12865e-05
-6.51255e-06
-2.19786e-06
1.63555e-06
4.9636e-06
7.7604e-06
9.99952e-06
1.16563e-05
1.27125e-05
1.31531e-05
1.2966e-05
1.21372e-05
1.06534e-05
8.50494e-06
5.68476e-06
2.18898e-06
-1.98485e-06
-6.83778e-06
-1.23729e-05
-1.85961e-05
-2.55147e-05
-3.31343e-05
-4.14574e-05
-5.04809e-05
-6.01984e-05
-7.0601e-05
-8.16777e-05
-9.34177e-05
-0.000105811
-0.000118849
-0.000132524
-0.000146826
-0.000161747
-0.000177274
-0.000193396
-0.000210099
-0.000227368
-0.000245188
-0.000263544
-0.00028242
-0.000301799
-0.000321667
-0.000342011
-0.000362816
-0.000384066
-0.000405745
-0.000427839
-0.00045033
-0.000473205
-0.000496448
-0.000520042
-0.000543969
-0.000568211
-0.000592749
-0.000617561
-0.000642629
-0.000667929
-0.00069344
-0.000719143
-0.000745014
-0.000771035
-0.000797187
-0.000823452
-0.000849819
-0.000876271
-0.000902794
-0.000929368
-0.000955973
-0.000982588
-0.00100919
-0.00103577
-0.00106231
-0.00108879
-0.00111519
-0.0011415
-0.00116769
-0.00119375
-0.00121965
-0.00124538
-0.00127091
-0.00129623
-0.0013213
-0.00134611
-0.00137063
-0.00139484
-0.00141874
-0.0014423
-0.00146552
-0.00148838
-0.00151087
-0.00153296
-0.00155464
-0.0015759
-0.00159671
-0.00161706
-0.00163694
-0.00165632
-0.00167519
-0.00169353
-0.00171133
-0.00172858
-0.00174527
-0.00176137
-0.00177688
-0.00179177
-0.00180603
-0.00181965
-0.00183262
-0.00184493
-0.00185658
-0.00186755
-0.00187785
-0.00188747
-0.0018964
-0.00190464
-0.0019122
-0.00191907
-0.00192524
-0.00193072
-0.0019355
-0.00193958
-0.00194299
-0.00194572
-0.00194778
-0.00194918
-0.00194993
-0.00195007
-0.0019496
-0.0019485
-0.00194679
-0.00194451
-0.00194167
-0.00193829
-0.0019344
-0.00193004
-0.00192522
-0.00191997
-0.00191429
-0.00190825
-0.0019018
-0.00189503
-0.00188791
-0.00188047
-0.00187269
-0.00186465
-0.00185638
-0.00184712