/*--------------------------------*- C++ -*----------------------------------*\
  =========                 |
  \\      /  F ield         | OpenFOAM: The Open Source CFD Toolbox
   \\    /   O peration     | Website:  https://openfoam.org
    \\  /    A nd           | Version:  7
     \\/     M anipulation  |
\*---------------------------------------------------------------------------*/
FoamFile
{
    version     2.0;
    format      ascii;
    class       surfaceScalarField;
    location    "0.3125";
    object      phi;
}
// * * * * * * * * * * * * * * * * * * * * * * * * * * * * * * * * * * * * * //

dimensions      [0 3 -1 0 0 0 0];

internalField   nonuniform List<scalar> 
101920
(
-3.81834e-14
2.56312e-13
-4.7269e-13
4.22348e-13
-9.15335e-13
4.42349e-13
-1.27407e-12
3.5806e-13
-1.47834e-12
2.11409e-13
-1.4978e-12
1.99726e-14
-1.30362e-12
-1.94287e-13
-8.8654e-13
-4.15699e-13
-2.48444e-13
-6.38632e-13
6.09007e-13
-8.59586e-13
1.68082e-12
-1.07285e-12
2.95948e-12
-1.27591e-12
4.43134e-12
-1.47015e-12
6.08574e-12
-1.65508e-12
7.9136e-12
-1.82867e-12
9.9046e-12
-1.99015e-12
1.20463e-11
-2.1406e-12
1.43266e-11
-2.2804e-12
1.67357e-11
-2.40956e-12
1.92634e-11
-2.52801e-12
2.18989e-11
-2.63556e-12
2.46321e-11
-2.73263e-12
2.74529e-11
-2.82007e-12
3.03516e-11
-2.89836e-12
3.33192e-11
-2.96767e-12
3.63475e-11
-3.02825e-12
3.94281e-11
-3.08035e-12
4.25524e-11
-3.12412e-12
4.57124e-11
-3.15999e-12
4.89006e-11
-3.18853e-12
5.21102e-11
-3.21015e-12
5.53348e-11
-3.22494e-12
5.85679e-11
-3.23298e-12
6.18032e-11
-3.23471e-12
6.50343e-11
-3.23067e-12
6.82554e-11
-3.22122e-12
7.14612e-11
-3.20657e-12
7.4647e-11
-3.18684e-12
7.78083e-11
-3.1621e-12
8.09405e-11
-3.1325e-12
8.40391e-11
-3.09835e-12
8.70996e-11
-3.05997e-12
9.01176e-11
-3.01768e-12
9.30895e-11
-2.97173e-12
9.60116e-11
-2.92239e-12
9.88808e-11
-2.8699e-12
1.01694e-10
-2.81437e-12
1.04449e-10
-2.75583e-12
1.07143e-10
-2.69435e-12
1.09773e-10
-2.63015e-12
1.12337e-10
-2.56343e-12
1.14831e-10
-2.49436e-12
1.17254e-10
-2.42311e-12
1.19604e-10
-2.34989e-12
1.21878e-10
-2.27484e-12
1.24076e-10
-2.19801e-12
1.26195e-10
-2.11949e-12
1.28235e-10
-2.03943e-12
1.30193e-10
-1.95797e-12
1.32068e-10
-1.87515e-12
1.33859e-10
-1.79103e-12
1.35564e-10
-1.70573e-12
1.37184e-10
-1.61937e-12
1.38715e-10
-1.532e-12
1.40159e-10
-1.44367e-12
1.41514e-10
-1.3545e-12
1.42778e-10
-1.26458e-12
1.43951e-10
-1.174e-12
1.45034e-10
-1.08278e-12
1.46024e-10
-9.90955e-13
1.46922e-10
-8.98589e-13
1.47727e-10
-8.05736e-13
1.48439e-10
-7.12453e-13
1.49058e-10
-6.18812e-13
1.49583e-10
-5.24922e-13
1.50013e-10
-4.30882e-13
1.50349e-10
-3.36721e-13
1.50591e-10
-2.42386e-13
1.50738e-10
-1.47823e-13
1.50791e-10
-5.30609e-14
1.5075e-10
4.17946e-14
1.50613e-10
1.36639e-13
1.50382e-10
2.31419e-13
1.50056e-10
3.26104e-13
1.49636e-10
4.20648e-13
1.49121e-10
5.14997e-13
1.48512e-10
6.0912e-13
1.47809e-10
7.02998e-13
1.47013e-10
7.96592e-13
1.46123e-10
8.89826e-13
1.45141e-10
9.82618e-13
1.44066e-10
1.07491e-12
1.42899e-10
1.16667e-12
1.41641e-10
1.25786e-12
1.40292e-10
1.34838e-12
1.38854e-10
1.43813e-12
1.37326e-10
1.52701e-12
1.3571e-10
1.61492e-12
1.34008e-10
1.7018e-12
1.3222e-10
1.7876e-12
1.30347e-10
1.87226e-12
1.28391e-10
1.95571e-12
1.26353e-10
2.03786e-12
1.24235e-10
2.11865e-12
1.22037e-10
2.19798e-12
1.19762e-10
2.27564e-12
1.17411e-10
2.35139e-12
1.14985e-10
2.42504e-12
1.12488e-10
2.49658e-12
1.09922e-10
2.56606e-12
1.07288e-10
2.63338e-12
1.0459e-10
2.69823e-12
1.0183e-10
2.7603e-12
9.90107e-11
2.81943e-12
9.61351e-11
2.87554e-12
9.32068e-11
2.92856e-12
9.02287e-11
2.9783e-12
8.72043e-11
3.02448e-12
8.41373e-11
3.06677e-12
8.1032e-11
3.1049e-12
7.78928e-11
3.13882e-12
7.47239e-11
3.16849e-12
7.15301e-11
3.19364e-12
6.83162e-11
3.21373e-12
6.50875e-11
3.22843e-12
6.18494e-11
3.23771e-12
5.86075e-11
3.24153e-12
5.53679e-11
3.23954e-12
5.21368e-11
3.23126e-12
4.89205e-11
3.21634e-12
4.57257e-11
3.19455e-12
4.25599e-11
3.16558e-12
3.94307e-11
3.12916e-12
3.63459e-11
3.08505e-12
3.33132e-11
3.0328e-12
3.03413e-11
2.97181e-12
2.74392e-11
2.9019e-12
2.4616e-11
2.82328e-12
2.18806e-11
2.73552e-12
1.9243e-11
2.6374e-12
1.67133e-11
2.52867e-12
1.43019e-11
2.41059e-12
1.20199e-11
2.28307e-12
9.87902e-12
2.14344e-12
7.88927e-12
1.99043e-12
6.05991e-12
1.82662e-12
4.40288e-12
1.65413e-12
2.93165e-12
1.4714e-12
1.65681e-12
1.27685e-12
5.86158e-13
1.07189e-12
-2.72436e-13
8.59175e-13
-9.11512e-13
6.40432e-13
-1.32701e-12
4.17133e-13
-1.52135e-12
1.93934e-13
-1.50639e-12
-1.86624e-14
-1.30421e-12
-2.06454e-13
-9.53808e-13
-3.51589e-13
-5.25678e-13
-4.26068e-13
-1.46254e-13
-3.75562e-13
-1.47041e-13
-3.26469e-13
5.69569e-13
-1.00199e-12
1.09733e-12
-1.68139e-12
1.13538e-12
-2.13817e-12
8.33641e-13
-2.23009e-12
3.01624e-13
-1.84839e-12
-3.71077e-13
-9.22636e-13
-1.12222e-12
5.74402e-13
-1.91547e-12
2.65326e-12
-2.72475e-12
5.3193e-12
-3.52853e-12
8.56053e-12
-4.31329e-12
1.23566e-11
-5.07192e-12
1.66836e-11
-5.80003e-12
2.15188e-11
-6.49246e-12
2.68361e-11
-7.14575e-12
3.26059e-11
-7.75892e-12
3.87984e-11
-8.33259e-12
4.53832e-11
-8.86659e-12
5.23327e-11
-9.36003e-12
5.96188e-11
-9.81335e-12
6.72122e-11
-1.02275e-11
7.50842e-11
-1.06035e-11
8.32077e-11
-1.09427e-11
9.15561e-11
-1.12466e-11
1.00104e-10
-1.1516e-11
1.08827e-10
-1.17516e-11
1.17703e-10
-1.19547e-11
1.26707e-10
-1.21268e-11
1.35816e-10
-1.22693e-11
1.4501e-10
-1.23835e-11
1.54269e-10
-1.247e-11
1.63574e-10
-1.25298e-11
1.72906e-10
-1.25642e-11
1.82246e-10
-1.25744e-11
1.91577e-10
-1.25618e-11
2.00882e-10
-1.25276e-11
2.10147e-10
-1.24728e-11
2.19356e-10
-1.23979e-11
2.28497e-10
-1.23036e-11
2.37556e-10
-1.21909e-11
2.46519e-10
-1.20609e-11
2.55375e-10
-1.19147e-11
2.6411e-10
-1.1753e-11
2.72715e-10
-1.15769e-11
2.81179e-10
-1.13872e-11
2.89492e-10
-1.11845e-11
2.97646e-10
-1.09693e-11
3.05631e-10
-1.07424e-11
3.13441e-10
-1.05043e-11
3.21066e-10
-1.02557e-11
3.285e-10
-9.99715e-12
3.35736e-10
-9.72946e-12
3.42766e-10
-9.45332e-12
3.49585e-10
-9.16922e-12
3.56187e-10
-8.87754e-12
3.62567e-10
-8.57872e-12
3.68721e-10
-8.27322e-12
3.74643e-10
-7.96149e-12
3.80329e-10
-7.64399e-12
3.85775e-10
-7.32119e-12
3.90978e-10
-6.99349e-12
3.95933e-10
-6.66119e-12
4.00639e-10
-6.32453e-12
4.0509e-10
-5.98383e-12
4.09286e-10
-5.63943e-12
4.13223e-10
-5.29169e-12
4.16898e-10
-4.9409e-12
4.2031e-10
-4.58729e-12
4.23458e-10
-4.23109e-12
4.26338e-10
-3.87255e-12
4.28951e-10
-3.5119e-12
4.31294e-10
-3.14934e-12
4.33366e-10
-2.78512e-12
4.35166e-10
-2.41949e-12
4.36693e-10
-2.05267e-12
4.37946e-10
-1.68484e-12
4.38924e-10
-1.31617e-12
4.39628e-10
-9.46781e-13
4.40057e-10
-5.76822e-13
4.40211e-10
-2.06442e-13
4.40089e-10
1.64159e-13
4.39692e-10
5.34747e-13
4.39019e-10
9.05102e-13
4.3807e-10
1.27505e-12
4.36847e-10
1.64445e-12
4.35349e-10
2.01314e-12
4.33577e-10
2.38097e-12
4.31533e-10
2.74774e-12
4.29216e-10
3.11327e-12
4.26629e-10
3.47733e-12
4.23772e-10
3.83965e-12
4.20647e-10
4.19997e-12
4.17255e-10
4.55807e-12
4.13599e-10
4.91372e-12
4.0968e-10
5.26663e-12
4.055e-10
5.61653e-12
4.01063e-10
5.96312e-12
3.9637e-10
6.30615e-12
3.91425e-10
6.6453e-12
3.86232e-10
6.9802e-12
3.80793e-10
7.31046e-12
3.75113e-10
7.63575e-12
3.69195e-10
7.95573e-12
3.63045e-10
8.27003e-12
3.56665e-10
8.57817e-12
3.50061e-10
8.87961e-12
3.43239e-10
9.17379e-12
3.36203e-10
9.4602e-12
3.28961e-10
9.73846e-12
3.21519e-10
1.00082e-11
3.13884e-10
1.02689e-11
3.06063e-10
1.05196e-11
2.98064e-10
1.07595e-11
2.89895e-10
1.09881e-11
2.81565e-10
1.12051e-11
2.73085e-10
1.14097e-11
2.64463e-10
1.16011e-11
2.55709e-10
1.17783e-11
2.46835e-10
1.19404e-11
2.37852e-10
1.2087e-11
2.28774e-10
1.22171e-11
2.19612e-10
1.23298e-11
2.10381e-10
1.24244e-11
2.01094e-10
1.25e-11
1.91767e-10
1.25554e-11
1.82415e-10
1.25897e-11
1.73056e-10
1.26017e-11
1.63705e-10
1.25907e-11
1.54381e-10
1.25553e-11
1.45103e-10
1.24944e-11
1.3589e-10
1.24069e-11
1.26764e-10
1.22918e-11
1.17745e-10
1.21483e-11
1.08855e-10
1.19747e-11
1.00117e-10
1.17698e-11
9.15558e-11
1.15326e-11
8.31965e-11
1.1262e-11
7.5064e-11
1.09568e-11
6.71833e-11
1.06157e-11
5.95826e-11
1.02374e-11
5.22915e-11
9.82066e-12
4.53369e-11
9.36494e-12
3.87456e-11
8.87086e-12
3.25491e-11
8.33799e-12
2.67796e-11
7.76376e-12
2.14632e-11
7.14696e-12
1.66253e-11
6.49042e-12
1.22958e-11
5.79764e-12
8.50291e-12
5.06983e-12
5.26693e-12
4.30919e-12
2.60274e-12
3.52239e-12
5.20749e-13
2.71965e-12
-9.75632e-13
1.91366e-12
-1.89732e-12
1.12149e-12
-2.28101e-12
3.70045e-13
-2.19401e-12
-2.9578e-13
-1.73735e-12
-8.14192e-13
-1.05769e-12
-1.10233e-12
-3.7509e-13
-1.04809e-12
-5.18145e-13
-4.06091e-13
9.75064e-13
-1.06912e-12
1.76491e-12
-1.61679e-12
1.69673e-12
-1.78693e-12
1.00699e-12
-1.37953e-12
-1.07828e-13
-2.5388e-13
-1.49749e-12
1.68018e-12
-3.05716e-12
4.47249e-12
-4.7126e-12
8.15036e-12
-6.40675e-12
1.27219e-11
-8.09833e-12
1.81721e-11
-9.7613e-12
2.44762e-11
-1.13774e-11
3.1606e-11
-1.29324e-11
3.95286e-11
-1.44155e-11
4.82044e-11
-1.58204e-11
5.75893e-11
-1.71442e-11
6.76405e-11
-1.83851e-11
7.83139e-11
-1.95416e-11
8.95657e-11
-2.06127e-11
1.01352e-10
-2.15988e-11
1.13628e-10
-2.25019e-11
1.2635e-10
-2.33241e-11
1.39474e-10
-2.40672e-11
1.5296e-10
-2.47333e-11
1.66769e-10
-2.53248e-11
1.80861e-10
-2.58434e-11
1.95198e-10
-2.62918e-11
2.09744e-10
-2.66728e-11
2.24463e-10
-2.6989e-11
2.39321e-10
-2.72425e-11
2.54286e-10
-2.74357e-11
2.69328e-10
-2.7571e-11
2.84415e-10
-2.76508e-11
2.99519e-10
-2.76778e-11
3.1461e-10
-2.76545e-11
3.29664e-10
-2.75831e-11
3.44655e-10
-2.74656e-11
3.59561e-10
-2.73039e-11
3.74357e-10
-2.71e-11
3.89023e-10
-2.68561e-11
4.03536e-10
-2.6574e-11
4.17878e-10
-2.62558e-11
4.32028e-10
-2.59036e-11
4.4597e-10
-2.55191e-11
4.59685e-10
-2.5104e-11
4.73159e-10
-2.46599e-11
4.86377e-10
-2.41883e-11
4.99324e-10
-2.36907e-11
5.11988e-10
-2.31683e-11
5.24355e-10
-2.26226e-11
5.36413e-10
-2.20551e-11
5.48151e-10
-2.14672e-11
5.59557e-10
-2.08601e-11
5.70623e-10
-2.02351e-11
5.81338e-10
-1.95932e-11
5.91694e-10
-1.89355e-11
6.01683e-10
-1.82628e-11
6.11298e-10
-1.75763e-11
6.20531e-10
-1.68769e-11
6.29375e-10
-1.61655e-11
6.37824e-10
-1.5443e-11
6.45872e-10
-1.471e-11
6.53515e-10
-1.39672e-11
6.60747e-10
-1.32156e-11
6.67563e-10
-1.24558e-11
6.73959e-10
-1.16885e-11
6.79932e-10
-1.09143e-11
6.85477e-10
-1.01337e-11
6.90593e-10
-9.34724e-12
6.95275e-10
-8.55556e-12
6.99522e-10
-7.75915e-12
7.0333e-10
-6.95852e-12
7.06698e-10
-6.15416e-12
7.09625e-10
-5.34658e-12
7.12107e-10
-4.53623e-12
7.14145e-10
-3.72351e-12
7.15736e-10
-2.90877e-12
7.16881e-10
-2.09242e-12
7.17579e-10
-1.27483e-12
7.1783e-10
-4.5641e-13
7.17632e-10
3.62445e-13
7.16986e-10
1.1813e-12
7.15892e-10
1.99969e-12
7.1435e-10
2.81718e-12
7.12361e-10
3.63342e-12
7.09927e-10
4.44805e-12
7.07048e-10
5.26069e-12
7.03725e-10
6.0709e-12
6.9996e-10
6.8782e-12
6.95756e-10
7.68211e-12
6.91113e-10
8.48211e-12
6.86035e-10
9.27767e-12
6.80525e-10
1.00682e-11
6.74585e-10
1.08533e-11
6.68218e-10
1.16322e-11
6.61429e-10
1.24044e-11
6.54222e-10
1.31692e-11
6.46601e-10
1.3926e-11
6.38572e-10
1.4674e-11
6.30139e-10
1.54126e-11
6.21308e-10
1.61407e-11
6.12086e-10
1.68577e-11
6.02479e-10
1.75627e-11
5.92495e-10
1.82549e-11
5.82141e-10
1.89332e-11
5.71424e-10
1.95966e-11
5.60353e-10
2.02439e-11
5.48939e-10
2.08741e-11
5.37192e-10
2.1486e-11
5.25121e-10
2.20787e-11
5.12739e-10
2.26508e-11
5.00058e-10
2.32009e-11
4.8709e-10
2.37274e-11
4.73849e-10
2.42291e-11
4.6035e-10
2.47046e-11
4.46608e-10
2.51524e-11
4.32639e-10
2.55706e-11
4.18459e-10
2.59575e-11
4.04088e-10
2.63114e-11
3.89543e-10
2.66309e-11
3.74846e-10
2.69143e-11
3.60017e-10
2.71592e-11
3.45077e-10
2.73636e-11
3.30051e-10
2.75257e-11
3.14962e-10
2.76436e-11
2.99837e-10
2.77151e-11
2.84701e-10
2.77378e-11
2.69583e-10
2.77095e-11
2.5451e-10
2.76279e-11
2.39514e-10
2.74906e-11
2.24626e-10
2.72951e-11
2.09879e-10
2.70393e-11
1.95307e-10
2.67208e-11
1.80944e-10
2.63368e-11
1.66829e-10
2.58848e-11
1.52999e-10
2.53628e-11
1.39493e-10
2.47687e-11
1.26351e-10
2.40992e-11
1.13613e-10
2.3352e-11
1.01323e-10
2.25263e-11
8.95267e-11
2.16198e-11
7.82664e-11
2.0629e-11
6.75838e-11
1.95529e-11
5.75233e-11
1.83938e-11
4.81328e-11
1.71521e-11
3.94562e-11
1.58261e-11
3.15321e-11
1.44169e-11
2.43992e-11
1.29306e-11
1.80949e-11
1.13742e-11
1.26498e-11
9.7561e-12
8.08367e-12
8.08944e-12
4.40561e-12
6.39511e-12
1.61195e-12
4.70408e-12
-3.18826e-13
3.05501e-12
-1.43827e-12
1.49869e-12
-1.84223e-12
1.10138e-13
-1.67034e-12
-9.975e-13
-1.11349e-12
-1.66881e-12
-4.27174e-13
-1.73109e-12
-9.46886e-13
-3.4048e-13
1.32049e-12
-7.82749e-13
2.22187e-12
-9.49496e-13
1.86143e-12
-5.46471e-13
6.00098e-13
6.43245e-13
-1.29629e-12
2.76881e-12
-3.62399e-12
5.93418e-12
-6.22841e-12
1.02066e-11
-8.99115e-12
1.56218e-11
-1.18234e-11
2.21888e-11
-1.46626e-11
2.98935e-11
-1.74653e-11
3.87114e-11
-2.01975e-11
4.86102e-11
-2.28327e-11
5.95489e-11
-2.53532e-11
7.14779e-11
-2.77485e-11
8.43434e-11
-3.00109e-11
9.80923e-11
-3.21352e-11
1.12669e-10
-3.41184e-11
1.28016e-10
-3.5959e-11
1.44076e-10
-3.76572e-11
1.60791e-10
-3.92153e-11
1.78104e-10
-4.0636e-11
1.95959e-10
-4.19219e-11
2.14302e-10
-4.30762e-11
2.3308e-10
-4.41024e-11
2.52241e-10
-4.50041e-11
2.71735e-10
-4.57854e-11
2.91512e-10
-4.64503e-11
3.11526e-10
-4.70032e-11
3.3173e-10
-4.74478e-11
3.52083e-10
-4.77879e-11
3.7254e-10
-4.80278e-11
3.93062e-10
-4.81719e-11
4.13609e-10
-4.82243e-11
4.34143e-10
-4.81892e-11
4.54628e-10
-4.807e-11
4.75032e-10
-4.78705e-11
4.95321e-10
-4.7594e-11
5.15466e-10
-4.72439e-11
5.35435e-10
-4.68241e-11
5.552e-10
-4.6338e-11
5.74733e-10
-4.57889e-11
5.94009e-10
-4.51801e-11
6.13004e-10
-4.45145e-11
6.31693e-10
-4.37951e-11
6.50057e-10
-4.30247e-11
6.68074e-10
-4.2206e-11
6.85725e-10
-4.13417e-11
7.02991e-10
-4.04342e-11
7.19854e-10
-3.94859e-11
7.36298e-10
-3.84993e-11
7.52308e-10
-3.74766e-11
7.67867e-10
-3.64202e-11
7.82964e-10
-3.5332e-11
7.97584e-10
-3.42139e-11
8.11716e-10
-3.30679e-11
8.25349e-10
-3.18957e-11
8.38472e-10
-3.0699e-11
8.51074e-10
-2.94795e-11
8.63147e-10
-2.82388e-11
8.74683e-10
-2.69782e-11
8.85672e-10
-2.56992e-11
8.96108e-10
-2.44031e-11
9.05984e-10
-2.30913e-11
9.15292e-10
-2.17648e-11
9.24028e-10
-2.0425e-11
9.32187e-10
-1.90729e-11
9.39762e-10
-1.77096e-11
9.4675e-10
-1.6336e-11
9.53146e-10
-1.4953e-11
9.58948e-10
-1.35617e-11
9.64152e-10
-1.21628e-11
9.68755e-10
-1.07574e-11
9.72753e-10
-9.34613e-12
9.76146e-10
-7.92988e-12
9.78931e-10
-6.50935e-12
9.81106e-10
-5.08524e-12
9.82672e-10
-3.65823e-12
9.83626e-10
-2.22907e-12
9.83969e-10
-7.9849e-13
9.83699e-10
6.3276e-13
9.82817e-10
2.06396e-12
9.81323e-10
3.49439e-12
9.79217e-10
4.92332e-12
9.765e-10
6.35007e-12
9.73175e-10
7.77397e-12
9.69242e-10
9.1943e-12
9.64703e-10
1.06102e-11
9.59561e-10
1.20209e-11
9.53818e-10
1.34254e-11
9.47477e-10
1.4823e-11
9.40541e-10
1.62127e-11
9.33016e-10
1.75936e-11
9.24904e-10
1.89648e-11
9.1621e-10
2.0325e-11
9.0694e-10
2.16733e-11
8.971e-10
2.30085e-11
8.86695e-10
2.43294e-11
8.75733e-10
2.56348e-11
8.64222e-10
2.69234e-11
8.52168e-10
2.81937e-11
8.39582e-10
2.94442e-11
8.26471e-10
3.06736e-11
8.12846e-10
3.18803e-11
7.98718e-10
3.30624e-11
7.84097e-10
3.42179e-11
7.68995e-10
3.53453e-11
7.53426e-10
3.64426e-11
7.37404e-10
3.75079e-11
7.20943e-10
3.85392e-11
7.0406e-10
3.9534e-11
6.86771e-10
4.04901e-11
6.69093e-10
4.1405e-11
6.51047e-10
4.22763e-11
6.3265e-10
4.31015e-11
6.13925e-10
4.38779e-11
5.94893e-10
4.46027e-11
5.75577e-10
4.52728e-11
5.56003e-10
4.58853e-11
5.36196e-10
4.64374e-11
5.16184e-10
4.69261e-11
4.95995e-10
4.73478e-11
4.7566e-10
4.7699e-11
4.55209e-10
4.79762e-11
4.34677e-10
4.81762e-11
4.14097e-10
4.82953e-11
3.93505e-10
4.83296e-11
3.7294e-10
4.82752e-11
3.52439e-10
4.81282e-11
3.32044e-10
4.78848e-11
3.11798e-10
4.75409e-11
2.91745e-10
4.70926e-11
2.7193e-10
4.65357e-11
2.52401e-10
4.58659e-11
2.33207e-10
4.50791e-11
2.14398e-10
4.4172e-11
1.96027e-10
4.31407e-11
1.78146e-10
4.19804e-11
1.6081e-10
4.06875e-11
1.44074e-10
3.92602e-11
1.27996e-10
3.76964e-11
1.12634e-10
3.59923e-11
9.80454e-11
3.41447e-11
8.42845e-11
3.21548e-11
7.1408e-11
3.00259e-11
5.94728e-11
2.77597e-11
4.85309e-11
2.53592e-11
3.86284e-11
2.28326e-11
2.98081e-11
2.01938e-11
2.21054e-11
1.74602e-11
1.55443e-11
1.46541e-11
1.01344e-11
1.18084e-11
5.86335e-12
8.97209e-12
2.69792e-12
6.21275e-12
5.77114e-13
3.61644e-12
-6.01533e-13
1.29478e-12
-9.89991e-13
-5.94441e-13
-8.21361e-13
-1.84823e-12
-3.52954e-13
-2.1984e-12
-1.30372e-12
-1.94619e-13
1.5249e-12
-2.71564e-13
2.3007e-12
1.41553e-13
1.44249e-12
1.33185e-12
-5.92576e-13
3.51264e-12
-3.47663e-12
6.8355e-12
-6.95179e-12
1.1412e-11
-1.08117e-11
1.73155e-11
-1.4897e-11
2.45828e-11
-1.90898e-11
3.32229e-11
-2.33032e-11
4.32256e-11
-2.7471e-11
5.45674e-11
-3.15416e-11
6.72105e-11
-3.54769e-11
8.11074e-11
-3.92503e-11
9.62024e-11
-4.28443e-11
1.12435e-10
-4.62457e-11
1.29743e-10
-4.94446e-11
1.48061e-10
-5.24359e-11
1.6732e-10
-5.5217e-11
1.87452e-10
-5.77879e-11
2.08389e-10
-6.01501e-11
2.3006e-10
-6.2307e-11
2.524e-10
-6.42621e-11
2.75343e-10
-6.60192e-11
2.98823e-10
-6.75833e-11
3.22779e-10
-6.89596e-11
3.47148e-10
-7.01539e-11
3.71869e-10
-7.11721e-11
3.96885e-10
-7.202e-11
4.2214e-10
-7.27034e-11
4.47581e-10
-7.32281e-11
4.73155e-10
-7.36005e-11
4.9881e-10
-7.38269e-11
5.24498e-10
-7.39133e-11
5.50173e-10
-7.38657e-11
5.75791e-10
-7.36895e-11
6.0131e-10
-7.33901e-11
6.26689e-10
-7.2973e-11
6.51889e-10
-7.24435e-11
6.76872e-10
-7.18068e-11
7.01603e-10
-7.10683e-11
7.26047e-10
-7.02331e-11
7.50173e-10
-6.9306e-11
7.73949e-10
-6.82917e-11
7.97347e-10
-6.71945e-11
8.2034e-10
-6.60186e-11
8.42901e-10
-6.47682e-11
8.65006e-10
-6.34473e-11
8.86632e-10
-6.20598e-11
9.07756e-10
-6.06096e-11
9.28357e-10
-5.91002e-11
9.48415e-10
-5.75352e-11
9.67913e-10
-5.59178e-11
9.86831e-10
-5.42513e-11
1.00516e-09
-5.25384e-11
1.02287e-09
-5.07821e-11
1.03996e-09
-4.89853e-11
1.05641e-09
-4.71506e-11
1.07221e-09
-4.52805e-11
1.08735e-09
-4.33773e-11
1.10181e-09
-4.14433e-11
1.1156e-09
-3.94807e-11
1.12868e-09
-3.74916e-11
1.14107e-09
-3.54779e-11
1.15275e-09
-3.34415e-11
1.16371e-09
-3.13844e-11
1.17394e-09
-2.93081e-11
1.18344e-09
-2.72143e-11
1.19221e-09
-2.51045e-11
1.20024e-09
-2.29801e-11
1.20752e-09
-2.08427e-11
1.21405e-09
-1.86936e-11
1.21982e-09
-1.65341e-11
1.22484e-09
-1.43656e-11
1.2291e-09
-1.21891e-11
1.2326e-09
-1.00059e-11
1.23533e-09
-7.8172e-12
1.23729e-09
-5.62406e-12
1.23849e-09
-3.42757e-12
1.23892e-09
-1.22886e-12
1.23859e-09
9.70905e-13
1.23748e-09
3.17058e-12
1.23561e-09
5.36904e-12
1.23296e-09
7.56521e-12
1.22956e-09
9.75798e-12
1.22538e-09
1.19463e-11
1.22045e-09
1.41289e-11
1.21476e-09
1.63046e-11
1.20831e-09
1.84722e-11
1.2011e-09
2.06301e-11
1.19315e-09
2.27772e-11
1.18445e-09
2.4912e-11
1.17501e-09
2.70331e-11
1.16483e-09
2.91389e-11
1.15393e-09
3.12277e-11
1.1423e-09
3.32979e-11
1.12996e-09
3.53478e-11
1.11692e-09
3.73755e-11
1.10317e-09
3.9379e-11
1.08874e-09
4.13563e-11
1.07363e-09
4.33052e-11
1.05785e-09
4.52235e-11
1.04141e-09
4.71089e-11
1.02433e-09
4.89589e-11
1.00663e-09
5.07708e-11
9.88303e-10
5.25418e-11
9.69379e-10
5.4269e-11
9.49871e-10
5.59498e-11
9.29798e-10
5.75811e-11
9.09178e-10
5.91596e-11
8.88031e-10
6.06817e-11
8.66377e-10
6.21439e-11
8.44239e-10
6.35426e-11
8.21641e-10
6.48742e-11
7.98608e-10
6.61347e-11
7.75167e-10
6.73199e-11
7.51343e-10
6.84255e-11
7.27168e-10
6.94472e-11
7.02673e-10
7.03805e-11
6.7789e-10
7.12207e-11
6.52853e-10
7.19631e-11
6.27597e-10
7.26029e-11
6.02161e-10
7.31348e-11
5.76584e-10
7.35534e-11
5.50907e-10
7.38533e-11
5.25173e-10
7.40293e-11
4.99427e-10
7.40758e-11
4.73716e-10
7.39869e-11
4.48087e-10
7.37566e-11
4.22592e-10
7.33791e-11
3.97284e-10
7.28489e-11
3.72218e-10
7.21598e-11
3.47447e-10
7.13055e-11
3.23033e-10
7.02801e-11
2.99034e-10
6.90781e-11
2.75513e-10
6.76937e-11
2.52532e-10
6.61213e-11
2.30157e-10
6.43556e-11
2.08454e-10
6.23914e-11
1.87491e-10
6.02241e-11
1.67333e-10
5.78515e-11
1.48051e-10
5.52718e-11
1.29715e-10
5.2482e-11
1.12393e-10
4.94811e-11
9.6145e-11
4.62731e-11
8.10379e-11
4.28646e-11
6.71334e-11
3.92632e-11
5.4486e-11
3.5481e-11
4.31417e-11
3.15382e-11
3.31367e-11
2.74626e-11
2.44976e-11
2.32913e-11
1.72366e-11
1.90728e-11
1.13414e-11
1.48732e-11
6.76906e-12
1.07863e-11
3.44798e-12
6.93217e-12
1.27974e-12
3.4644e-12
1.04465e-13
5.84348e-13
-3.01546e-13
-1.44676e-12
-2.05909e-13
-2.29167e-12
-1.51206e-12
-1.08002e-14
1.53428e-12
3.82652e-13
1.90447e-12
1.51679e-12
3.10052e-13
3.64617e-12
-2.72421e-12
6.97145e-12
-6.80871e-12
1.16432e-11
-1.16305e-11
1.77704e-11
-1.69403e-11
2.5421e-11
-2.25451e-11
3.46302e-11
-2.82977e-11
4.54082e-11
-3.40831e-11
5.77467e-11
-3.98114e-11
7.16202e-11
-4.54145e-11
8.69863e-11
-5.0842e-11
1.03792e-10
-5.6057e-11
1.21979e-10
-6.10324e-11
1.41479e-10
-6.57483e-11
1.62224e-10
-7.01903e-11
1.8414e-10
-7.435e-11
2.07149e-10
-7.82234e-11
2.31173e-10
-8.18096e-11
2.56133e-10
-8.51096e-11
2.81953e-10
-8.81264e-11
3.08555e-10
-9.0864e-11
3.35863e-10
-9.33274e-11
3.63802e-10
-9.55225e-11
3.92299e-10
-9.74564e-11
4.21281e-10
-9.91367e-11
4.5068e-10
-1.00571e-10
4.80427e-10
-1.01767e-10
5.10458e-10
-1.02733e-10
5.40708e-10
-1.03477e-10
5.71115e-10
-1.04007e-10
6.01621e-10
-1.04333e-10
6.32168e-10
-1.04461e-10
6.62701e-10
-1.044e-10
6.93168e-10
-1.04158e-10
7.2352e-10
-1.03743e-10
7.53708e-10
-1.03161e-10
7.83685e-10
-1.0242e-10
8.13408e-10
-1.01529e-10
8.42833e-10
-1.00493e-10
8.7192e-10
-9.93204e-11
9.00631e-10
-9.80175e-11
9.28929e-10
-9.65908e-11
9.5678e-10
-9.50466e-11
9.84152e-10
-9.33909e-11
1.01101e-09
-9.16294e-11
1.03733e-09
-8.97678e-11
1.06308e-09
-8.78116e-11
1.08824e-09
-8.57661e-11
1.11278e-09
-8.36365e-11
1.13667e-09
-8.14276e-11
1.1599e-09
-7.91442e-11
1.18244e-09
-7.67906e-11
1.20427e-09
-7.43711e-11
1.22538e-09
-7.18897e-11
1.24574e-09
-6.93504e-11
1.26535e-09
-6.67569e-11
1.28418e-09
-6.41128e-11
1.30222e-09
-6.14215e-11
1.31947e-09
-5.86861e-11
1.33589e-09
-5.59097e-11
1.3515e-09
-5.30954e-11
1.36627e-09
-5.0246e-11
1.38019e-09
-4.73641e-11
1.39326e-09
-4.44525e-11
1.40546e-09
-4.15134e-11
1.4168e-09
-3.85491e-11
1.42725e-09
-3.55619e-11
1.43682e-09
-3.25538e-11
1.44551e-09
-2.95269e-11
1.4533e-09
-2.64833e-11
1.46019e-09
-2.34247e-11
1.46617e-09
-2.03531e-11
1.47125e-09
-1.72701e-11
1.47542e-09
-1.41776e-11
1.47868e-09
-1.10771e-11
1.48103e-09
-7.97014e-12
1.48246e-09
-4.85843e-12
1.48298e-09
-1.74357e-12
1.48257e-09
1.37279e-12
1.48126e-09
4.48901e-12
1.47902e-09
7.60351e-12
1.47587e-09
1.07148e-11
1.47181e-09
1.38212e-11
1.46684e-09
1.69212e-11
1.46095e-09
2.00129e-11
1.45416e-09
2.30947e-11
1.44647e-09
2.61646e-11
1.43788e-09
2.92207e-11
1.4284e-09
3.22613e-11
1.41802e-09
3.52843e-11
1.40677e-09
3.82875e-11
1.39464e-09
4.12688e-11
1.38164e-09
4.42258e-11
1.36778e-09
4.71561e-11
1.35307e-09
5.00573e-11
1.33752e-09
5.29266e-11
1.32114e-09
5.57613e-11
1.30393e-09
5.85585e-11
1.28592e-09
6.13151e-11
1.26712e-09
6.4028e-11
1.24753e-09
6.66939e-11
1.22718e-09
6.93091e-11
1.20608e-09
7.18699e-11
1.18425e-09
7.43724e-11
1.16171e-09
7.68126e-11
1.13847e-09
7.91864e-11
1.11457e-09
8.14897e-11
1.09001e-09
8.37178e-11
1.06482e-09
8.58656e-11
1.03904e-09
8.79282e-11
1.01268e-09
8.99006e-11
9.85777e-10
9.17776e-11
9.58359e-10
9.35537e-11
9.30456e-10
9.52227e-11
9.02102e-10
9.67788e-11
8.73333e-10
9.82161e-11
8.44185e-10
9.95283e-11
8.14697e-10
1.00709e-10
7.8491e-10
1.01751e-10
7.54866e-10
1.02647e-10
7.24609e-10
1.03391e-10
6.94187e-10
1.03975e-10
6.63649e-10
1.04392e-10
6.33045e-10
1.04633e-10
6.02428e-10
1.04693e-10
5.71854e-10
1.04561e-10
5.41379e-10
1.04231e-10
5.11063e-10
1.03695e-10
4.80968e-10
1.02943e-10
4.51159e-10
1.01969e-10
4.217e-10
1.00764e-10
3.9266e-10
9.93198e-11
3.64109e-10
9.7629e-11
3.3612e-10
9.56838e-11
3.08764e-10
9.34764e-11
2.82117e-10
9.10011e-11
2.56257e-10
8.8252e-11
2.31261e-10
8.52223e-11
2.07205e-10
8.19075e-11
1.84166e-10
7.83072e-11
1.62225e-10
7.44211e-11
1.4146e-10
7.02487e-11
1.21941e-10
6.57939e-11
1.03737e-10
6.10667e-11
8.69178e-11
5.60808e-11
7.15448e-11
5.08552e-11
5.76678e-11
4.54166e-11
4.53257e-11
3.98029e-11
3.45451e-11
3.40673e-11
2.5339e-11
2.82776e-11
1.76995e-11
2.25203e-11
1.15827e-11
1.69084e-11
6.91327e-12
1.15941e-11
3.59616e-12
6.77785e-12
1.48024e-12
2.70115e-12
3.61715e-13
-3.26679e-13
-1.82806e-14
-1.91048e-12
-1.53122e-12
1.96652e-13
1.3335e-12
1.12611e-12
9.74245e-13
3.06743e-12
-1.63077e-12
6.23976e-12
-5.90239e-12
1.08239e-11
-1.13996e-11
1.69561e-11
-1.77655e-11
2.47339e-11
-2.47161e-11
3.42157e-11
-3.20265e-11
4.54351e-11
-3.95187e-11
5.84011e-11
-4.70516e-11
7.31024e-11
-5.45136e-11
8.95096e-11
-6.18207e-11
1.07577e-10
-6.89088e-11
1.27247e-10
-7.57294e-11
1.48458e-10
-8.22451e-11
1.71139e-10
-8.84291e-11
1.95212e-10
-9.42623e-11
2.20596e-10
-9.97322e-11
2.47207e-10
-1.04833e-10
2.7496e-10
-1.09561e-10
3.03767e-10
-1.13917e-10
3.33543e-10
-1.17903e-10
3.64202e-10
-1.21524e-10
3.9566e-10
-1.24785e-10
4.27832e-10
-1.27695e-10
4.60637e-10
-1.30261e-10
4.93993e-10
-1.32493e-10
5.27821e-10
-1.344e-10
5.62046e-10
-1.35992e-10
5.96594e-10
-1.3728e-10
6.31392e-10
-1.38274e-10
6.6637e-10
-1.38985e-10
7.01461e-10
-1.39423e-10
7.36598e-10
-1.396e-10
7.71722e-10
-1.39525e-10
8.06771e-10
-1.39209e-10
8.41689e-10
-1.38661e-10
8.7642e-10
-1.37891e-10
9.10911e-10
-1.3691e-10
9.45111e-10
-1.35728e-10
9.78971e-10
-1.34353e-10
1.01244e-09
-1.32794e-10
1.04549e-09
-1.31062e-10
1.07806e-09
-1.29163e-10
1.11012e-09
-1.27107e-10
1.14163e-09
-1.24902e-10
1.17255e-09
-1.22554e-10
1.20286e-09
-1.20073e-10
1.23251e-09
-1.17464e-10
1.26148e-09
-1.14736e-10
1.28974e-09
-1.11894e-10
1.31726e-09
-1.08946e-10
1.34401e-09
-1.05898e-10
1.36998e-09
-1.02755e-10
1.39513e-09
-9.95232e-11
1.41945e-09
-9.62082e-11
1.44291e-09
-9.28151e-11
1.4655e-09
-8.9349e-11
1.48721e-09
-8.58145e-11
1.508e-09
-8.22163e-11
1.52787e-09
-7.85586e-11
1.54681e-09
-7.48456e-11
1.5648e-09
-7.10813e-11
1.58182e-09
-6.72695e-11
1.59787e-09
-6.3414e-11
1.61293e-09
-5.9518e-11
1.627e-09
-5.55849e-11
1.64007e-09
-5.16177e-11
1.65213e-09
-4.76194e-11
1.66317e-09
-4.35929e-11
1.67318e-09
-3.95409e-11
1.68216e-09
-3.54662e-11
1.69011e-09
-3.13712e-11
1.69701e-09
-2.72586e-11
1.70287e-09
-2.31306e-11
1.70768e-09
-1.89896e-11
1.71144e-09
-1.48377e-11
1.71415e-09
-1.06771e-11
1.7158e-09
-6.51007e-12
1.7164e-09
-2.33881e-12
1.71594e-09
1.83446e-12
1.71442e-09
6.00757e-12
1.71184e-09
1.01784e-11
1.70821e-09
1.43448e-11
1.70353e-09
1.85046e-11
1.6978e-09
2.26557e-11
1.69102e-09
2.67955e-11
1.68319e-09
3.09217e-11
1.67432e-09
3.50319e-11
1.66442e-09
3.91235e-11
1.65349e-09
4.3194e-11
1.64153e-09
4.72406e-11
1.62856e-09
5.12605e-11
1.61458e-09
5.52505e-11
1.59959e-09
5.92077e-11
1.58362e-09
6.31288e-11
1.56667e-09
6.70104e-11
1.54874e-09
7.0849e-11
1.52986e-09
7.46408e-11
1.51004e-09
7.83819e-11
1.48928e-09
8.20682e-11
1.46762e-09
8.56955e-11
1.44505e-09
8.92593e-11
1.42161e-09
9.27547e-11
1.3973e-09
9.61767e-11
1.37215e-09
9.95202e-11
1.34618e-09
1.0278e-10
1.31942e-09
1.0595e-10
1.29189e-09
1.09026e-10
1.2636e-09
1.12e-10
1.2346e-09
1.14866e-10
1.20491e-09
1.17618e-10
1.17457e-09
1.20248e-10
1.14359e-09
1.22751e-10
1.11203e-09
1.25118e-10
1.07991e-09
1.27341e-10
1.04727e-09
1.29414e-10
1.01416e-09
1.31327e-10
9.80619e-10
1.33072e-10
9.46686e-10
1.34642e-10
9.1241e-10
1.36026e-10
8.77842e-10
1.37215e-10
8.43031e-10
1.38201e-10
8.08031e-10
1.38974e-10
7.72899e-10
1.39523e-10
7.37693e-10
1.3984e-10
7.02472e-10
1.39913e-10
6.673e-10
1.39733e-10
6.32242e-10
1.39289e-10
5.97366e-10
1.3857e-10
5.62743e-10
1.37567e-10
5.28443e-10
1.36269e-10
4.94542e-10
1.34664e-10
4.61118e-10
1.32744e-10
4.28249e-10
1.30499e-10
3.96015e-10
1.27918e-10
3.64499e-10
1.24992e-10
3.33785e-10
1.21714e-10
3.03958e-10
1.18077e-10
2.75105e-10
1.14075e-10
2.47313e-10
1.09702e-10
2.20666e-10
1.04954e-10
1.95249e-10
9.98359e-11
1.71149e-10
9.43491e-11
1.48445e-10
8.84993e-11
1.27212e-10
8.22989e-11
1.07523e-10
7.57681e-11
8.9444e-11
6.8934e-11
7.30302e-11
6.18322e-11
5.83251e-11
5.45111e-11
4.53561e-11
4.70359e-11
3.41369e-11
3.94933e-11
2.46622e-11
3.19945e-11
1.68951e-11
2.46762e-11
1.07731e-11
1.77188e-11
6.19639e-12
1.13529e-11
3.03388e-12
5.86249e-12
1.10899e-12
1.60086e-12
1.91601e-13
-9.9255e-13
-1.3398e-12
4.1762e-13
9.16606e-13
1.91558e-12
-5.27164e-13
4.71687e-12
-4.43622e-12
9.0015e-12
-1.0193e-11
1.49213e-11
-1.73208e-11
2.25876e-11
-2.5431e-11
3.20829e-11
-3.42091e-11
4.34555e-11
-4.34004e-11
5.6733e-11
-5.27983e-11
7.19201e-11
-6.22384e-11
8.89984e-11
-7.15911e-11
1.07934e-10
-8.07555e-11
1.28678e-10
-8.96534e-11
1.5117e-10
-9.82238e-11
1.75343e-10
-1.0642e-10
2.01121e-10
-1.14207e-10
2.28422e-10
-1.2156e-10
2.57157e-10
-1.28465e-10
2.87236e-10
-1.3491e-10
3.18568e-10
-1.40892e-10
3.51058e-10
-1.46407e-10
3.84615e-10
-1.5146e-10
4.19144e-10
-1.56053e-10
4.54554e-10
-1.60194e-10
4.90751e-10
-1.63892e-10
5.27646e-10
-1.67156e-10
5.65151e-10
-1.69997e-10
6.03179e-10
-1.72428e-10
6.41646e-10
-1.74459e-10
6.8047e-10
-1.76103e-10
7.19571e-10
-1.77374e-10
7.58871e-10
-1.78285e-10
7.98296e-10
-1.78849e-10
8.37773e-10
-1.79079e-10
8.77234e-10
-1.78987e-10
9.16612e-10
-1.78587e-10
9.55842e-10
-1.77892e-10
9.94864e-10
-1.76913e-10
1.03362e-09
-1.75663e-10
1.07205e-09
-1.74155e-10
1.11009e-09
-1.724e-10
1.14771e-09
-1.70411e-10
1.18484e-09
-1.68197e-10
1.22145e-09
-1.65771e-10
1.25748e-09
-1.63142e-10
1.2929e-09
-1.60321e-10
1.32766e-09
-1.57317e-10
1.36173e-09
-1.54141e-10
1.39507e-09
-1.50801e-10
1.42764e-09
-1.47307e-10
1.45942e-09
-1.43668e-10
1.49036e-09
-1.39891e-10
1.52045e-09
-1.35984e-10
1.54965e-09
-1.31955e-10
1.57793e-09
-1.27812e-10
1.60529e-09
-1.23561e-10
1.63168e-09
-1.19209e-10
1.65709e-09
-1.14763e-10
1.68151e-09
-1.10228e-10
1.7049e-09
-1.05611e-10
1.72726e-09
-1.00917e-10
1.74857e-09
-9.61513e-11
1.76881e-09
-9.13192e-11
1.78796e-09
-8.64256e-11
1.80602e-09
-8.14752e-11
1.82298e-09
-7.64724e-11
1.83881e-09
-7.14214e-11
1.85352e-09
-6.63261e-11
1.86709e-09
-6.11905e-11
1.87952e-09
-5.60183e-11
1.89079e-09
-5.0813e-11
1.9009e-09
-4.55782e-11
1.90985e-09
-4.03171e-11
1.91762e-09
-3.50329e-11
1.92422e-09
-2.97288e-11
1.92963e-09
-2.44078e-11
1.93387e-09
-1.90726e-11
1.93692e-09
-1.37262e-11
1.93878e-09
-8.37133e-12
1.93945e-09
-3.01102e-12
1.93893e-09
2.35189e-12
1.93723e-09
7.7146e-12
1.93433e-09
1.30743e-11
1.93025e-09
1.84283e-11
1.92498e-09
2.37737e-11
1.91853e-09
2.91077e-11
1.9109e-09