/*--------------------------------*- C++ -*----------------------------------*\
  =========                 |
  \\      /  F ield         | OpenFOAM: The Open Source CFD Toolbox
   \\    /   O peration     | Website:  https://openfoam.org
    \\  /    A nd           | Version:  7
     \\/     M anipulation  |
\*---------------------------------------------------------------------------*/
FoamFile
{
    version     2.0;
    format      ascii;
    class       volVectorField;
    location    "0.3125";
    object      U;
}
// * * * * * * * * * * * * * * * * * * * * * * * * * * * * * * * * * * * * * //

dimensions      [0 1 -1 0 0 0 0];

internalField   nonuniform List<vector> 
51200
(
(-8.15045e-10 1.88274e-08 0)
(-3.69166e-08 3.1411e-08 0)
(-1.1107e-07 3.32601e-08 0)
(-1.79447e-07 2.88482e-08 0)
(-2.26394e-07 2.08455e-08 0)
(-2.45374e-07 1.0439e-08 0)
(-2.3201e-07 -1.04409e-09 0)
(-1.83421e-07 -1.2651e-08 0)
(-9.90492e-08 -2.41127e-08 0)
(2.07619e-08 -3.52971e-08 0)
(1.75355e-07 -4.59292e-08 0)
(3.6369e-07 -5.59193e-08 0)
(5.84065e-07 -6.54047e-08 0)
(8.34535e-07 -7.43734e-08 0)
(1.11352e-06 -8.27154e-08 0)
(1.41945e-06 -9.03987e-08 0)
(1.75049e-06 -9.75118e-08 0)
(2.10465e-06 -1.04099e-07 0)
(2.4802e-06 -1.10167e-07 0)
(2.87554e-06 -1.15704e-07 0)
(3.28899e-06 -1.20691e-07 0)
(3.71888e-06 -1.25153e-07 0)
(4.16358e-06 -1.29151e-07 0)
(4.6215e-06 -1.32722e-07 0)
(5.09114e-06 -1.3588e-07 0)
(5.57114e-06 -1.38635e-07 0)
(6.06016e-06 -1.40991e-07 0)
(6.55685e-06 -1.42949e-07 0)
(7.05989e-06 -1.44533e-07 0)
(7.56803e-06 -1.45781e-07 0)
(8.08013e-06 -1.46712e-07 0)
(8.59514e-06 -1.47325e-07 0)
(9.11201e-06 -1.4762e-07 0)
(9.62972e-06 -1.47625e-07 0)
(1.01473e-05 -1.47374e-07 0)
(1.06636e-05 -1.46887e-07 0)
(1.1178e-05 -1.4617e-07 0)
(1.16895e-05 -1.45223e-07 0)
(1.21975e-05 -1.44044e-07 0)
(1.27011e-05 -1.42638e-07 0)
(1.31998e-05 -1.41023e-07 0)
(1.36926e-05 -1.39216e-07 0)
(1.41791e-05 -1.37235e-07 0)
(1.46584e-05 -1.35092e-07 0)
(1.51301e-05 -1.32802e-07 0)
(1.55935e-05 -1.30375e-07 0)
(1.60482e-05 -1.27815e-07 0)
(1.64938e-05 -1.25121e-07 0)
(1.69298e-05 -1.22295e-07 0)
(1.73559e-05 -1.19346e-07 0)
(1.77714e-05 -1.16287e-07 0)
(1.81762e-05 -1.1312e-07 0)
(1.85696e-05 -1.09853e-07 0)
(1.89515e-05 -1.06501e-07 0)
(1.93215e-05 -1.03072e-07 0)
(1.96794e-05 -9.95652e-08 0)
(2.00248e-05 -9.59853e-08 0)
(2.03576e-05 -9.23405e-08 0)
(2.06774e-05 -8.86365e-08 0)
(2.09841e-05 -8.48731e-08 0)
(2.12774e-05 -8.10511e-08 0)
(2.15572e-05 -7.71766e-08 0)
(2.18232e-05 -7.32556e-08 0)
(2.20754e-05 -6.92906e-08 0)
(2.23134e-05 -6.52837e-08 0)
(2.25373e-05 -6.12403e-08 0)
(2.27468e-05 -5.71668e-08 0)
(2.29419e-05 -5.30661e-08 0)
(2.31224e-05 -4.89382e-08 0)
(2.32882e-05 -4.47832e-08 0)
(2.34393e-05 -4.06036e-08 0)
(2.35756e-05 -3.64022e-08 0)
(2.3697e-05 -3.21821e-08 0)
(2.38035e-05 -2.79477e-08 0)
(2.38949e-05 -2.37048e-08 0)
(2.39714e-05 -1.94585e-08 0)
(2.40327e-05 -1.52086e-08 0)
(2.40789e-05 -1.09501e-08 0)
(2.411e-05 -6.67889e-09 0)
(2.41261e-05 -2.39684e-09 0)
(2.4127e-05 1.88924e-09 0)
(2.41127e-05 6.17341e-09 0)
(2.40833e-05 1.04537e-08 0)
(2.40388e-05 1.473e-08 0)
(2.39791e-05 1.90008e-08 0)
(2.39042e-05 2.32636e-08 0)
(2.38143e-05 2.75172e-08 0)
(2.37094e-05 3.17609e-08 0)
(2.35894e-05 3.59933e-08 0)
(2.34545e-05 4.02107e-08 0)
(2.33048e-05 4.44098e-08 0)
(2.31401e-05 4.85884e-08 0)
(2.29608e-05 5.27454e-08 0)
(2.27668e-05 5.68782e-08 0)
(2.25582e-05 6.09819e-08 0)
(2.23352e-05 6.50506e-08 0)
(2.20978e-05 6.90795e-08 0)
(2.18463e-05 7.30657e-08 0)
(2.15809e-05 7.70076e-08 0)
(2.13016e-05 8.09032e-08 0)
(2.10087e-05 8.47495e-08 0)
(2.07023e-05 8.85427e-08 0)
(2.03827e-05 9.22798e-08 0)
(2.00501e-05 9.59593e-08 0)
(1.97048e-05 9.95784e-08 0)
(1.93469e-05 1.03127e-07 0)
(1.89767e-05 1.06588e-07 0)
(1.85945e-05 1.09952e-07 0)
(1.82006e-05 1.13219e-07 0)
(1.77955e-05 1.164e-07 0)
(1.73794e-05 1.19491e-07 0)
(1.69528e-05 1.22477e-07 0)
(1.6516e-05 1.25338e-07 0)
(1.60695e-05 1.28062e-07 0)
(1.56138e-05 1.30648e-07 0)
(1.51493e-05 1.331e-07 0)
(1.46767e-05 1.35411e-07 0)
(1.41964e-05 1.37565e-07 0)
(1.37089e-05 1.3954e-07 0)
(1.32149e-05 1.41321e-07 0)
(1.27152e-05 1.42913e-07 0)
(1.22104e-05 1.44321e-07 0)
(1.17012e-05 1.4553e-07 0)
(1.11884e-05 1.46506e-07 0)
(1.06728e-05 1.4723e-07 0)
(1.01552e-05 1.47707e-07 0)
(9.63656e-06 1.47943e-07 0)
(9.11781e-06 1.47919e-07 0)
(8.59991e-06 1.47605e-07 0)
(8.08385e-06 1.46981e-07 0)
(7.57068e-06 1.46039e-07 0)
(7.06155e-06 1.44767e-07 0)
(6.55766e-06 1.43153e-07 0)
(6.06023e-06 1.41186e-07 0)
(5.57051e-06 1.38837e-07 0)
(5.08981e-06 1.36069e-07 0)
(4.61954e-06 1.32876e-07 0)
(4.16116e-06 1.2928e-07 0)
(3.7161e-06 1.25257e-07 0)
(3.28589e-06 1.20725e-07 0)
(2.87211e-06 1.15665e-07 0)
(2.47641e-06 1.10163e-07 0)
(2.10054e-06 1.04221e-07 0)
(1.74632e-06 9.76602e-08 0)
(1.41546e-06 9.03841e-08 0)
(1.1095e-06 8.25488e-08 0)
(8.30181e-07 7.42827e-08 0)
(5.79556e-07 6.54689e-08 0)
(3.59535e-07 5.59809e-08 0)
(1.7159e-07 4.58799e-08 0)
(1.70022e-08 3.5277e-08 0)
(-1.0295e-07 2.42175e-08 0)
(-1.87266e-07 1.27438e-08 0)
(-2.35766e-07 1.06141e-09 0)
(-2.49486e-07 -1.02551e-08 0)
(-2.30945e-07 -2.03751e-08 0)
(-1.84622e-07 -2.82037e-08 0)
(-1.1882e-07 -3.16437e-08 0)
(-5.09348e-08 -2.68056e-08 0)
(-9.72254e-09 -9.89017e-09 0)
(-2.17523e-08 6.44428e-08 0)
(-1.01217e-07 1.18844e-07 0)
(-2.18346e-07 1.25849e-07 0)
(-3.17349e-07 1.00694e-07 0)
(-3.66266e-07 5.47041e-08 0)
(-3.46031e-07 -4.2361e-09 0)
(-2.43259e-07 -6.99126e-08 0)
(-5.03958e-08 -1.38627e-07 0)
(2.3542e-07 -2.08219e-07 0)
(6.15257e-07 -2.77043e-07 0)
(1.08839e-06 -3.43774e-07 0)
(1.65209e-06 -4.07837e-07 0)
(2.3028e-06 -4.69146e-07 0)
(3.03676e-06 -5.27345e-07 0)
(3.85006e-06 -5.82043e-07 0)
(4.73817e-06 -6.33154e-07 0)
(5.69629e-06 -6.80858e-07 0)
(6.7196e-06 -7.25193e-07 0)
(7.80346e-06 -7.66101e-07 0)
(8.94342e-06 -8.0361e-07 0)
(1.01349e-05 -8.37772e-07 0)
(1.13733e-05 -8.68685e-07 0)
(1.2654e-05 -8.96529e-07 0)
(1.39727e-05 -9.2145e-07 0)
(1.53254e-05 -9.43518e-07 0)
(1.6708e-05 -9.6279e-07 0)
(1.81168e-05 -9.79362e-07 0)
(1.95481e-05 -9.93352e-07 0)
(2.0998e-05 -1.00489e-06 0)
(2.24631e-05 -1.01409e-06 0)
(2.39402e-05 -1.02103e-06 0)
(2.54261e-05 -1.02578e-06 0)
(2.69177e-05 -1.02842e-06 0)
(2.84121e-05 -1.02907e-06 0)
(2.99065e-05 -1.02787e-06 0)
(3.1398e-05 -1.02492e-06 0)
(3.28842e-05 -1.0203e-06 0)
(3.43627e-05 -1.01405e-06 0)
(3.58313e-05 -1.0062e-06 0)
(3.72878e-05 -9.96832e-07 0)
(3.873e-05 -9.86038e-07 0)
(4.0156e-05 -9.73916e-07 0)
(4.15637e-05 -9.60546e-07 0)
(4.29514e-05 -9.46008e-07 0)
(4.43173e-05 -9.30373e-07 0)
(4.56598e-05 -9.13699e-07 0)
(4.69775e-05 -8.96027e-07 0)
(4.8269e-05 -8.77397e-07 0)
(4.95329e-05 -8.57855e-07 0)
(5.0768e-05 -8.37451e-07 0)
(5.1973e-05 -8.16242e-07 0)
(5.31469e-05 -7.9429e-07 0)
(5.42884e-05 -7.71653e-07 0)
(5.53966e-05 -7.48379e-07 0)
(5.64705e-05 -7.24502e-07 0)
(5.75093e-05 -7.0005e-07 0)
(5.85122e-05 -6.75059e-07 0)
(5.94784e-05 -6.4957e-07 0)
(6.04072e-05 -6.23621e-07 0)
(6.12979e-05 -5.97246e-07 0)
(6.215e-05 -5.70473e-07 0)
(6.29628e-05 -5.43327e-07 0)
(6.37358e-05 -5.15833e-07 0)
(6.44684e-05 -4.88013e-07 0)
(6.51603e-05 -4.59892e-07 0)
(6.5811e-05 -4.31504e-07 0)
(6.642e-05 -4.02874e-07 0)
(6.69872e-05 -3.74023e-07 0)
(6.7512e-05 -3.44965e-07 0)
(6.79943e-05 -3.15718e-07 0)
(6.84338e-05 -2.86299e-07 0)
(6.88303e-05 -2.56727e-07 0)
(6.91836e-05 -2.27021e-07 0)
(6.94933e-05 -1.97202e-07 0)
(6.97595e-05 -1.67294e-07 0)
(6.99819e-05 -1.37317e-07 0)
(7.01605e-05 -1.07279e-07 0)
(7.02951e-05 -7.71844e-08 0)
(7.03858e-05 -4.70349e-08 0)
(7.04324e-05 -1.68421e-08 0)
(7.0435e-05 1.33719e-08 0)
(7.03934e-05 4.35833e-08 0)
(7.03078e-05 7.3774e-08 0)
(7.0178e-05 1.03932e-07 0)
(7.00042e-05 1.34045e-07 0)
(6.97865e-05 1.64101e-07 0)
(6.95249e-05 1.94088e-07 0)
(6.92196e-05 2.23994e-07 0)
(6.88707e-05 2.53804e-07 0)
(6.84783e-05 2.83499e-07 0)
(6.80427e-05 3.13054e-07 0)
(6.75641e-05 3.4245e-07 0)
(6.70427e-05 3.7167e-07 0)
(6.64788e-05 4.00696e-07 0)
(6.58727e-05 4.29505e-07 0)
(6.52247e-05 4.58069e-07 0)
(6.45352e-05 4.86364e-07 0)
(6.38047e-05 5.14367e-07 0)
(6.30336e-05 5.42055e-07 0)
(6.22224e-05 5.69401e-07 0)
(6.13717e-05 5.96376e-07 0)
(6.0482e-05 6.22954e-07 0)
(5.9554e-05 6.4911e-07 0)
(5.85884e-05 6.74816e-07 0)
(5.75857e-05 7.00035e-07 0)
(5.65469e-05 7.24717e-07 0)
(5.54726e-05 7.48804e-07 0)
(5.43636e-05 7.72248e-07 0)
(5.32212e-05 7.95031e-07 0)
(5.20461e-05 8.17137e-07 0)
(5.08397e-05 8.38524e-07 0)
(4.96029e-05 8.59111e-07 0)
(4.8337e-05 8.78817e-07 0)
(4.70432e-05 8.97597e-07 0)
(4.5723e-05 9.1543e-07 0)
(4.43778e-05 9.32273e-07 0)
(4.30092e-05 9.48047e-07 0)
(4.16187e-05 9.62666e-07 0)
(4.0208e-05 9.76059e-07 0)
(3.8779e-05 9.88163e-07 0)
(3.73336e-05 9.98928e-07 0)
(3.58739e-05 1.0083e-06 0)
(3.44019e-05 1.0162e-06 0)
(3.29199e-05 1.02254e-06 0)
(3.14301e-05 1.02721e-06 0)
(2.99352e-05 1.03015e-06 0)
(2.84376e-05 1.0313e-06 0)
(2.69401e-05 1.03057e-06 0)
(2.54455e-05 1.02784e-06 0)
(2.39566e-05 1.023e-06 0)
(2.24765e-05 1.01597e-06 0)
(2.10085e-05 1.00668e-06 0)
(1.9556e-05 9.95046e-07 0)
(1.81224e-05 9.80939e-07 0)
(1.67112e-05 9.64237e-07 0)
(1.53264e-05 9.44832e-07 0)
(1.39717e-05 9.22646e-07 0)
(1.26514e-05 8.97615e-07 0)
(1.13692e-05 8.69616e-07 0)
(1.01297e-05 8.38456e-07 0)
(8.93721e-06 8.04019e-07 0)
(7.79643e-06 7.66386e-07 0)
(6.71162e-06 7.25606e-07 0)
(5.68747e-06 6.81407e-07 0)
(4.72907e-06 6.3346e-07 0)
(3.84106e-06 5.81886e-07 0)
(3.02763e-06 5.27056e-07 0)
(2.29326e-06 4.69052e-07 0)
(1.64261e-06 4.07768e-07 0)
(1.07955e-06 3.43405e-07 0)
(6.06986e-07 2.76562e-07 0)
(2.27085e-07 2.08019e-07 0)
(-5.89027e-08 1.38653e-07 0)
(-2.51402e-07 6.98934e-08 0)
(-3.53997e-07 4.42544e-09 0)
(-3.74679e-07 -5.35939e-08 0)
(-3.2619e-07 -9.82815e-08 0)
(-2.27306e-07 -1.21333e-07 0)
(-1.1068e-07 -1.09931e-07 0)
(-2.65103e-08 -5.04529e-08 0)
(-2.96951e-08 1.24521e-07 0)
(-1.16644e-07 2.32811e-07 0)
(-2.23943e-07 2.36057e-07 0)
(-2.91644e-07 1.63869e-07 0)
(-2.79247e-07 4.07176e-08 0)
(-1.60889e-07 -1.14528e-07 0)
(8.11318e-08 -2.88758e-07 0)
(4.57713e-07 -4.73338e-07 0)
(9.74793e-07 -6.6187e-07 0)
(1.63494e-06 -8.49526e-07 0)
(2.4373e-06 -1.03339e-06 0)
(3.37861e-06 -1.21157e-06 0)
(4.45457e-06 -1.38269e-06 0)
(5.66022e-06 -1.54558e-06 0)
(6.98971e-06 -1.69952e-06 0)
(8.43626e-06 -1.84425e-06 0)
(9.99287e-06 -1.97974e-06 0)
(1.16526e-05 -2.10589e-06 0)
(1.34083e-05 -2.22254e-06 0)
(1.52531e-05 -2.32979e-06 0)
(1.71799e-05 -2.42788e-06 0)
(1.91814e-05 -2.51703e-06 0)
(2.12507e-05 -2.59751e-06 0)
(2.33812e-05 -2.66962e-06 0)
(2.55664e-05 -2.73357e-06 0)
(2.77999e-05 -2.78957e-06 0)
(3.00757e-05 -2.8379e-06 0)
(3.23878e-05 -2.8789e-06 0)
(3.47303e-05 -2.91287e-06 0)
(3.70978e-05 -2.94007e-06 0)
(3.94849e-05 -2.96073e-06 0)
(4.18868e-05 -2.97509e-06 0)
(4.42983e-05 -2.98344e-06 0)
(4.67146e-05 -2.98607e-06 0)
(4.91313e-05 -2.98327e-06 0)
(5.15439e-05 -2.97531e-06 0)
(5.39485e-05 -2.9624e-06 0)
(5.63412e-05 -2.94472e-06 0)
(5.87182e-05 -2.92247e-06 0)
(6.1076e-05 -2.89589e-06 0)
(6.34112e-05 -2.86519e-06 0)
(6.57204e-05 -2.83062e-06 0)
(6.80004e-05 -2.79239e-06 0)
(7.02485e-05 -2.7507e-06 0)
(7.24617e-05 -2.70573e-06 0)
(7.46375e-05 -2.65766e-06 0)
(7.67734e-05 -2.60664e-06 0)
(7.88672e-05 -2.55282e-06 0)
(8.09165e-05 -2.49634e-06 0)
(8.29195e-05 -2.43737e-06 0)
(8.48739e-05 -2.37605e-06 0)
(8.6778e-05 -2.31253e-06 0)
(8.863e-05 -2.24698e-06 0)
(9.04281e-05 -2.17952e-06 0)
(9.2171e-05 -2.11025e-06 0)
(9.3857e-05 -2.03929e-06 0)
(9.5485e-05 -1.96673e-06 0)
(9.70536e-05 -1.89269e-06 0)
(9.85616e-05 -1.81728e-06 0)
(0.000100008 -1.74059e-06 0)
(0.000101392 -1.66272e-06 0)
(0.000102712 -1.58373e-06 0)
(0.000103967 -1.5037e-06 0)
(0.000105157 -1.42273e-06 0)
(0.000106281 -1.34087e-06 0)
(0.000107339 -1.25822e-06 0)
(0.000108328 -1.17484e-06 0)
(0.00010925 -1.09078e-06 0)
(0.000110103 -1.0061e-06 0)
(0.000110887 -9.20855e-07 0)
(0.000111601 -8.3511e-07 0)
(0.000112246 -7.48913e-07 0)
(0.00011282 -6.62321e-07 0)
(0.000113323 -5.75388e-07 0)
(0.000113756 -4.88164e-07 0)
(0.000114118 -4.00693e-07 0)
(0.000114408 -3.13011e-07 0)
(0.000114627 -2.25157e-07 0)
(0.000114775 -1.37169e-07 0)
(0.000114851 -4.90888e-08 0)
(0.000114855 3.90397e-08 0)
(0.000114787 1.27166e-07 0)
(0.000114648 2.15241e-07 0)
(0.000114437 3.0322e-07 0)
(0.000114155 3.91065e-07 0)
(0.000113801 4.78741e-07 0)
(0.000113376 5.66208e-07 0)
(0.000112879 6.53421e-07 0)
(0.000112312 7.40329e-07 0)
(0.000111675 8.2688e-07 0)
(0.000110967 9.13015e-07 0)
(0.000110189 9.98676e-07 0)
(0.000109342 1.08381e-06 0)
(0.000108426 1.16835e-06 0)
(0.000107441 1.25224e-06 0)
(0.000106389 1.33541e-06 0)
(0.000105269 1.41779e-06 0)
(0.000104082 1.49933e-06 0)
(0.00010283 1.57993e-06 0)
(0.000101513 1.65952e-06 0)
(0.000100131 1.738e-06 0)
(9.8687e-05 1.81528e-06 0)
(9.71804e-05 1.8913e-06 0)
(9.56128e-05 1.96595e-06 0)
(9.39854e-05 2.03912e-06 0)
(9.22994e-05 2.1107e-06 0)
(9.0556e-05 2.18055e-06 0)
(8.87569e-05 2.24857e-06 0)
(8.69035e-05 2.31463e-06 0)
(8.49976e-05 2.37864e-06 0)
(8.3041e-05 2.44046e-06 0)
(8.10354e-05 2.49992e-06 0)
(7.89829e-05 2.55685e-06 0)
(7.68857e-05 2.61109e-06 0)
(7.47459e-05 2.66254e-06 0)
(7.2566e-05 2.71102e-06 0)
(7.03484e-05 2.75634e-06 0)
(6.80958e-05 2.79828e-06 0)
(6.5811e-05 2.83667e-06 0)
(6.34969e-05 2.87136e-06 0)
(6.11567e-05 2.90215e-06 0)
(5.87938e-05 2.9288e-06 0)
(5.64114e-05 2.95111e-06 0)
(5.40133e-05 2.96887e-06 0)
(5.16031e-05 2.98186e-06 0)
(4.91849e-05 2.98983e-06 0)
(4.67629e-05 2.99254e-06 0)
(4.43415e-05 2.98974e-06 0)
(4.1925e-05 2.98118e-06 0)
(3.95183e-05 2.96658e-06 0)
(3.71262e-05 2.94567e-06 0)
(3.47541e-05 2.91823e-06 0)
(3.24072e-05 2.88401e-06 0)
(3.0091e-05 2.84268e-06 0)
(2.78113e-05 2.79393e-06 0)
(2.55741e-05 2.73756e-06 0)
(2.33856e-05 2.67333e-06 0)
(2.12522e-05 2.60088e-06 0)
(1.91802e-05 2.51994e-06 0)
(1.71763e-05 2.43034e-06 0)
(1.52477e-05 2.33181e-06 0)
(1.34013e-05 2.22402e-06 0)
(1.16442e-05 2.10694e-06 0)
(9.98299e-06 1.98071e-06 0)
(8.42518e-06 1.84513e-06 0)
(6.97811e-06 1.69994e-06 0)
(5.64846e-06 1.54543e-06 0)
(4.44247e-06 1.38229e-06 0)
(3.36626e-06 1.21112e-06 0)
(2.4253e-06 1.03264e-06 0)
(1.62374e-06 8.48331e-07 0)
(9.64059e-07 6.60536e-07 0)
(4.469e-07 4.72531e-07 0)
(7.05145e-08 2.88606e-07 0)
(-1.70772e-07 1.14633e-07 0)
(-2.88354e-07 -3.99063e-08 0)
(-3.0033e-07 -1.61321e-07 0)
(-2.31976e-07 -2.30856e-07 0)
(-1.22269e-07 -2.26022e-07 0)
(-3.16304e-08 -1.17656e-07 0)
(-2.72546e-08 1.87341e-07 0)
(-9.48196e-08 3.30534e-07 0)
(-1.54996e-07 3.03953e-07 0)
(-1.46792e-07 1.55811e-07 0)
(-2.66883e-08 -7.68793e-08 0)
(2.33506e-07 -3.65731e-07 0)
(6.53484e-07 -6.89935e-07 0)
(1.24662e-06 -1.03411e-06 0)
(2.02087e-06 -1.38667e-06 0)
(2.97949e-06 -1.73945e-06 0)
(4.12186e-06 -2.08701e-06 0)
(5.4448e-06 -2.42526e-06 0)
(6.94365e-06 -2.751e-06 0)
(8.61246e-06 -3.06205e-06 0)
(1.04439e-05 -3.35713e-06 0)
(1.24296e-05 -3.63546e-06 0)
(1.45609e-05 -3.89652e-06 0)
(1.68292e-05 -4.13997e-06 0)
(1.92254e-05 -4.36563e-06 0)
(2.17402e-05 -4.57359e-06 0)
(2.43645e-05 -4.76419e-06 0)
(2.7089e-05 -4.93781e-06 0)
(2.99046e-05 -5.09482e-06 0)
(3.28025e-05 -5.23566e-06 0)
(3.57743e-05 -5.36075e-06 0)
(3.88114e-05 -5.47054e-06 0)
(4.19058e-05 -5.56555e-06 0)
(4.50494e-05 -5.64633e-06 0)
(4.82345e-05 -5.71342e-06 0)
(5.14537e-05 -5.76727e-06 0)
(5.47e-05 -5.80838e-06 0)
(5.79665e-05 -5.83725e-06 0)
(6.12465e-05 -5.85442e-06 0)
(6.45334e-05 -5.86043e-06 0)
(6.78213e-05 -5.85579e-06 0)
(7.11042e-05 -5.84094e-06 0)
(7.43767e-05 -5.81631e-06 0)
(7.76334e-05 -5.78233e-06 0)
(8.08694e-05 -5.73942e-06 0)
(8.40796e-05 -5.68802e-06 0)
(8.72594e-05 -5.62857e-06 0)
(9.04043e-05 -5.56148e-06 0)
(9.35101e-05 -5.48714e-06 0)
(9.65727e-05 -5.40594e-06 0)
(9.95883e-05 -5.31823e-06 0)
(0.000102553 -5.22435e-06 0)
(0.000105465 -5.12464e-06 0)
(0.000108319 -5.01939e-06 0)
(0.000111113 -4.90891e-06 0)
(0.000113844 -4.79349e-06 0)
(0.000116509 -4.67344e-06 0)
(0.000119106 -4.54904e-06 0)
(0.000121632 -4.42056e-06 0)
(0.000124085 -4.28825e-06 0)
(0.000126463 -4.15235e-06 0)
(0.000128764 -4.01307e-06 0)
(0.000130985 -3.87063e-06 0)
(0.000133126 -3.72524e-06 0)
(0.000135185 -3.57711e-06 0)
(0.000137159 -3.42641e-06 0)
(0.000139048 -3.27334e-06 0)
(0.00014085 -3.11804e-06 0)
(0.000142565 -2.96068e-06 0)
(0.00014419 -2.80141e-06 0)
(0.000145725 -2.64041e-06 0)
(0.000147169 -2.47779e-06 0)
(0.00014852 -2.3137e-06 0)
(0.000149779 -2.14826e-06 0)
(0.000150944 -1.98158e-06 0)
(0.000152015 -1.81378e-06 0)
(0.000152991 -1.64497e-06 0)
(0.000153872 -1.47526e-06 0)
(0.000154657 -1.30475e-06 0)
(0.000155345 -1.13355e-06 0)
(0.000155936 -9.6176e-07 0)
(0.00015643 -7.89455e-07 0)
(0.000156827 -6.1672e-07 0)
(0.000157127 -4.43638e-07 0)
(0.000157328 -2.70295e-07 0)
(0.000157432 -9.67803e-08 0)
(0.000157438 7.682e-08 0)
(0.000157346 2.50416e-07 0)
(0.000157156 4.23918e-07 0)
(0.000156867 5.97235e-07 0)
(0.000156482 7.70289e-07 0)
(0.000155998 9.43001e-07 0)
(0.000155418 1.11529e-06 0)
(0.00015474 1.28705e-06 0)
(0.000153965 1.45818e-06 0)
(0.000153094 1.62858e-06 0)
(0.000152127 1.79815e-06 0)
(0.000151065 1.96677e-06 0)
(0.000149908 2.13434e-06 0)
(0.000148657 2.30073e-06 0)
(0.000147312 2.46581e-06 0)
(0.000145875 2.62945e-06 0)
(0.000144346 2.79152e-06 0)
(0.000142726 2.95187e-06 0)
(0.000141016 3.11036e-06 0)
(0.000139218 3.26682e-06 0)
(0.000137333 3.42108e-06 0)
(0.000135361 3.57296e-06 0)
(0.000133305 3.7223e-06 0)
(0.000131166 3.86889e-06 0)
(0.000128945 4.01253e-06 0)
(0.000126645 4.15298e-06 0)
(0.000124266 4.29001e-06 0)
(0.000121812 4.42341e-06 0)
(0.000119284 4.55295e-06 0)
(0.000116685 4.67838e-06 0)
(0.000114017 4.79942e-06 0)
(0.000111282 4.91578e-06 0)
(0.000108484 5.02715e-06 0)
(0.000105626 5.13324e-06 0)
(0.000102709 5.23376e-06 0)
(9.97387e-05 5.32839e-06 0)
(9.67172e-05 5.41675e-06 0)
(9.36484e-05 5.49847e-06 0)
(9.05362e-05 5.57321e-06 0)
(8.73846e-05 5.64065e-06 0)
(8.4198e-05 5.70039e-06 0)
(8.09808e-05 5.752e-06 0)
(7.77376e-05 5.79504e-06 0)
(7.44735e-05 5.8291e-06 0)
(7.11935e-05 5.85378e-06 0)
(6.7903e-05 5.86863e-06 0)
(6.46079e-05 5.87316e-06 0)
(6.13138e-05 5.8669e-06 0)
(5.80269e-05 5.84936e-06 0)
(5.47536e-05 5.82005e-06 0)
(5.15006e-05 5.77847e-06 0)
(4.82749e-05 5.72415e-06 0)
(4.50836e-05 5.65657e-06 0)
(4.19342e-05 5.57517e-06 0)
(3.88343e-05 5.47945e-06 0)
(3.57921e-05 5.36898e-06 0)
(3.28156e-05 5.24328e-06 0)
(2.99132e-05 5.10173e-06 0)
(2.70937e-05 4.94386e-06 0)
(2.43657e-05 4.76943e-06 0)
(2.17384e-05 4.57814e-06 0)
(1.92209e-05 4.36936e-06 0)
(1.68225e-05 4.14276e-06 0)
(1.45523e-05 3.8986e-06 0)
(1.24191e-05 3.63713e-06 0)
(1.04321e-05 3.35833e-06 0)
(8.59994e-06 3.06251e-06 0)
(6.93063e-06 2.75074e-06 0)
(5.4313e-06 2.42461e-06 0)
(4.1083e-06 2.08614e-06 0)
(2.96651e-06 1.73807e-06 0)
(2.00879e-06 1.38456e-06 0)
(1.23517e-06 1.03193e-06 0)
(6.42141e-07 6.8853e-07 0)
(2.22509e-07 3.65285e-07 0)
(-3.63925e-08 7.70059e-08 0)
(-1.54484e-07 -1.54525e-07 0)
(-1.61415e-07 -3.00626e-07 0)
(-9.90045e-08 -3.25976e-07 0)
(-2.82142e-08 -1.84008e-07 0)
(-1.95629e-08 2.33592e-07 0)
(-5.07387e-08 3.78337e-07 0)
(-3.54939e-08 2.90217e-07 0)
(8.25377e-08 3.51301e-08 0)
(3.44834e-07 -3.39063e-07 0)
(7.79907e-07 -7.95137e-07 0)
(1.40837e-06 -1.30409e-06 0)
(2.24473e-06 -1.84364e-06 0)
(3.29746e-06 -2.39732e-06 0)
(4.57001e-06 -2.95317e-06 0)
(6.06209e-06 -3.50245e-06 0)
(7.77091e-06 -4.03837e-06 0)
(9.69141e-06 -4.55583e-06 0)
(1.18167e-05 -5.05134e-06 0)
(1.41383e-05 -5.52272e-06 0)
(1.6647e-05 -5.96834e-06 0)
(1.93327e-05 -6.38704e-06 0)
(2.21854e-05 -6.77819e-06 0)
(2.51944e-05 -7.1415e-06 0)
(2.83484e-05 -7.47699e-06 0)
(3.16367e-05 -7.78499e-06 0)
(3.5048e-05 -8.06599e-06 0)
(3.85716e-05 -8.32051e-06 0)
(4.21967e-05 -8.54909e-06 0)
(4.59131e-05 -8.7524e-06 0)
(4.97105e-05 -8.93116e-06 0)
(5.35789e-05 -9.08614e-06 0)
(5.75084e-05 -9.21815e-06 0)
(6.14896e-05 -9.32799e-06 0)
(6.55136e-05 -9.41639e-06 0)
(6.95714e-05 -9.48415e-06 0)
(7.36546e-05 -9.53207e-06 0)
(7.77549e-05 -9.56102e-06 0)
(8.18643e-05 -9.5718e-06 0)
(8.59751e-05 -9.5652e-06 0)
(9.00803e-05 -9.54192e-06 0)
(9.41729e-05 -9.50269e-06 0)
(9.82463e-05 -9.44818e-06 0)
(0.000102294 -9.37911e-06 0)
(0.00010631 -9.29616e-06 0)
(0.000110289 -9.20005e-06 0)
(0.000114224 -9.09142e-06 0)
(0.000118111 -8.97092e-06 0)
(0.000121944 -8.83914e-06 0)
(0.000125719 -8.69665e-06 0)
(0.000129432 -8.544e-06 0)
(0.000133077 -8.38174e-06 0)
(0.000136651 -8.21039e-06 0)
(0.000140151 -8.03045e-06 0)
(0.000143571 -7.8424e-06 0)
(0.00014691 -7.64672e-06 0)
(0.000150164 -7.44387e-06 0)
(0.000153329 -7.23429e-06 0)
(0.000156403 -7.01836e-06 0)
(0.000159383 -6.79648e-06 0)
(0.000162267 -6.56902e-06 0)
(0.000165051 -6.33633e-06 0)
(0.000167735 -6.09878e-06 0)
(0.000170316 -5.85667e-06 0)
(0.000172791 -5.61031e-06 0)
(0.00017516 -5.35999e-06 0)
(0.00017742 -5.106e-06 0)
(0.00017957 -4.84859e-06 0)
(0.000181609 -4.58804e-06 0)
(0.000183534 -4.32457e-06 0)
(0.000185345 -4.05843e-06 0)
(0.000187041 -3.78984e-06 0)
(0.00018862 -3.51901e-06 0)
(0.000190082 -3.24612e-06 0)
(0.000191426 -2.97136e-06 0)
(0.00019265 -2.69493e-06 0)
(0.000193755 -2.417e-06 0)
(0.00019474 -2.13774e-06 0)
(0.000195604 -1.85732e-06 0)
(0.000196346 -1.57589e-06 0)
(0.000196966 -1.2936e-06 0)
(0.000197465 -1.0106e-06 0)
(0.00019784 -7.27033e-07 0)
(0.000198094 -4.43033e-07 0)
(0.000198224 -1.58748e-07 0)
(0.000198231 1.25671e-07 0)
(0.000198116 4.10079e-07 0)
(0.000197877 6.94332e-07 0)
(0.000197516 9.78289e-07 0)
(0.000197032 1.26181e-06 0)
(0.000196426 1.54476e-06 0)
(0.000195697 1.82699e-06 0)
(0.000194847 2.10834e-06 0)
(0.000193875 2.38864e-06 0)
(0.000192783 2.66771e-06 0)
(0.00019157 2.94538e-06 0)
(0.000190237 3.22149e-06 0)
(0.000188786 3.49583e-06 0)
(0.000187216 3.76822e-06 0)
(0.00018553 4.03843e-06 0)
(0.000183727 4.30625e-06 0)
(0.00018181 4.57146e-06 0)
(0.000179778 4.83382e-06 0)
(0.000177635 5.09308e-06 0)
(0.00017538 5.34897e-06 0)
(0.000173016 5.60121e-06 0)
(0.000170544 5.84952e-06 0)
(0.000167967 6.0936e-06 0)
(0.000165285 6.33313e-06 0)
(0.000162502 6.56777e-06 0)
(0.000159619 6.79713e-06 0)
(0.000156638 7.02086e-06 0)
(0.000153563 7.2386e-06 0)
(0.000150396 7.44998e-06 0)
(0.00014714 7.65456e-06 0)
(0.000143797 7.85187e-06 0)
(0.000140372 8.04146e-06 0)
(0.000136868 8.22286e-06 0)
(0.000133288 8.39559e-06 0)
(0.000129637 8.55915e-06 0)
(0.000125918 8.71299e-06 0)
(0.000122135 8.85655e-06 0)
(0.000118294 8.98926e-06 0)
(0.000114399 9.11053e-06 0)
(0.000110456 9.21978e-06 0)
(0.000106469 9.3164e-06 0)
(0.000102444 9.39973e-06 0)
(9.83871e-05 9.46907e-06 0)
(9.43044e-05 9.52374e-06 0)
(9.02024e-05 9.56304e-06 0)
(8.60878e-05 9.58629e-06 0)
(8.19676e-05 9.59274e-06 0)
(7.78491e-05 9.5816e-06 0)
(7.37399e-05 9.55211e-06 0)
(6.9648e-05 9.5035e-06 0)
(6.55816e-05 9.43502e-06 0)
(6.15494e-05 9.34586e-06 0)
(5.75602e-05 9.23521e-06 0)
(5.36231e-05 9.10225e-06 0)
(4.97476e-05 8.94622e-06 0)
(4.59435e-05 8.7664e-06 0)
(4.22208e-05 8.56203e-06 0)
(3.85897e-05 8.33232e-06 0)
(3.50608e-05 8.07654e-06 0)
(3.16448e-05 7.79419e-06 0)
(2.83524e-05 7.48492e-06 0)
(2.51945e-05 7.14826e-06 0)
(2.21824e-05 6.78373e-06 0)
(1.93271e-05 6.39131e-06 0)
(1.66388e-05 5.97155e-06 0)
(1.4128e-05 5.52508e-06 0)
(1.18048e-05 5.05271e-06 0)
(9.67867e-06 4.55603e-06 0)
(7.75763e-06 4.0377e-06 0)
(6.04842e-06 3.50129e-06 0)
(4.55618e-06 2.95146e-06 0)
(3.28422e-06 2.39474e-06 0)
(2.23266e-06 1.84026e-06 0)
(1.39738e-06 1.30082e-06 0)
(7.69404e-07 7.9298e-07 0)
(3.3542e-07 3.38038e-07 0)
(7.53735e-08 -3.52977e-08 0)
(-4.08666e-08 -2.89469e-07 0)
(-5.4029e-08 -3.75825e-07 0)
(-2.0336e-08 -2.31312e-07 0)
(-9.71187e-09 2.51928e-07 0)
(5.98211e-09 3.56084e-07 0)
(1.17028e-07 1.70406e-07 0)
(3.69027e-07 -2.25868e-07 0)
(7.98462e-07 -7.74837e-07 0)
(1.4332e-06 -1.43052e-06 0)
(2.29372e-06 -2.15627e-06 0)
(3.39389e-06 -2.92381e-06 0)
(4.74172e-06 -3.71192e-06 0)
(6.34065e-06 -4.50437e-06 0)
(8.19072e-06 -5.28866e-06 0)
(1.0289e-05 -6.05525e-06 0)
(1.26301e-05 -6.79708e-06 0)
(1.52061e-05 -7.50913e-06 0)
(1.8008e-05 -8.18785e-06 0)
(2.10257e-05 -8.83064e-06 0)
(2.42482e-05 -9.4356e-06 0)
(2.7664e-05 -1.00016e-05 0)
(3.1261e-05 -1.05283e-05 0)
(3.50268e-05 -1.10155e-05 0)
(3.89487e-05 -1.14634e-05 0)
(4.30143e-05 -1.18727e-05 0)
(4.7211e-05 -1.22438e-05 0)
(5.15268e-05 -1.25775e-05 0)
(5.59495e-05 -1.28747e-05 0)
(6.04672e-05 -1.31364e-05 0)
(6.50684e-05 -1.33636e-05 0)
(6.97416e-05 -1.35574e-05 0)
(7.44759e-05 -1.37189e-05 0)
(7.92608e-05 -1.38492e-05 0)
(8.40857e-05 -1.39494e-05 0)
(8.89408e-05 -1.40206e-05 0)
(9.38162e-05 -1.40641e-05 0)
(9.87026e-05 -1.4081e-05 0)
(0.000103591 -1.40724e-05 0)
(0.000108473 -1.40393e-05 0)
(0.000113341 -1.39827e-05 0)
(0.000118186 -1.39037e-05 0)
(0.000123001 -1.38033e-05 0)
(0.000127778 -1.36826e-05 0)
(0.000132512 -1.35424e-05 0)
(0.000137194 -1.33837e-05 0)
(0.00014182 -1.32076e-05 0)
(0.000146382 -1.30148e-05 0)
(0.000150875 -1.28061e-05 0)
(0.000155294 -1.25825e-05 0)
(0.000159634 -1.23446e-05 0)
(0.00016389 -1.20933e-05 0)
(0.000168057 -1.18292e-05 0)
(0.00017213 -1.15532e-05 0)
(0.000176107 -1.12658e-05 0)
(0.000179982 -1.09679e-05 0)
(0.000183752 -1.06599e-05 0)
(0.000187414 -1.03425e-05 0)
(0.000190965 -1.00162e-05 0)
(0.000194401 -9.68168e-06 0)
(0.000197719 -9.33938e-06 0)
(0.000200918 -8.98982e-06 0)
(0.000203993 -8.63347e-06 0)
(0.000206944 -8.2708e-06 0)
(0.000209767 -7.90223e-06 0)
(0.000212462 -7.52817e-06 0)
(0.000215025 -7.14902e-06 0)
(0.000217455 -6.76518e-06 0)
(0.00021975 -6.37701e-06 0)
(0.00022191 -5.98484e-06 0)
(0.000223932 -5.58901e-06 0)
(0.000225815 -5.18981e-06 0)
(0.000227559 -4.78754e-06 0)
(0.000229161 -4.38249e-06 0)
(0.000230622 -3.97492e-06 0)
(0.00023194 -3.56511e-06 0)
(0.000233115 -3.15332e-06 0)
(0.000234145 -2.73977e-06 0)
(0.00023503 -2.32472e-06 0)
(0.000235771 -1.90837e-06 0)
(0.000236365 -1.49097e-06 0)
(0.000236814 -1.07271e-06 0)
(0.000237116 -6.53817e-07 0)
(0.000237272 -2.34496e-07 0)
(0.000237281 1.85026e-07 0)
(0.000237143 6.04529e-07 0)
(0.000236859 1.0238e-06 0)
(0.000236428 1.44264e-06 0)
(0.000235851 1.86083e-06 0)
(0.000235128 2.27816e-06 0)
(0.000234259 2.69439e-06 0)
(0.000233245 3.1093e-06 0)
(0.000232087 3.52262e-06 0)
(0.000230784 3.93412e-06 0)
(0.000229338 4.34353e-06 0)
(0.000227749 4.75058e-06 0)
(0.000226019 5.155e-06 0)
(0.000224147 5.55648e-06 0)
(0.000222137 5.95472e-06 0)
(0.000219988 6.34938e-06 0)
(0.000217702 6.74015e-06 0)
(0.00021528 7.12666e-06 0)
(0.000212725 7.50854e-06 0)
(0.000210038 7.8854e-06 0)
(0.00020722 8.25682e-06 0)
(0.000204275 8.62238e-06 0)
(0.000201203 8.98164e-06 0)
(0.000198008 9.33412e-06 0)
(0.000194691 9.67932e-06 0)
(0.000191256 1.00167e-05 0)
(0.000187705 1.03457e-05 0)
(0.000184042 1.06658e-05 0)
(0.000180269 1.09764e-05 0)
(0.000176391 1.1277e-05 0)
(0.000172411 1.15668e-05 0)
(0.000168332 1.18451e-05 0)
(0.00016416 1.21113e-05 0)
(0.000159898 1.23647e-05 0)
(0.000155551 1.26045e-05 0)
(0.000151124 1.28299e-05 0)
(0.000146622 1.30402e-05 0)
(0.000142051 1.32344e-05 0)
(0.000137416 1.34118e-05 0)
(0.000132723 1.35714e-05 0)
(0.00012798 1.37124e-05 0)
(0.000123191 1.38338e-05 0)
(0.000118366 1.39346e-05 0)
(0.000113509 1.40139e-05 0)
(0.000108631 1.40706e-05 0)
(0.000103737 1.41036e-05 0)
(9.88373e-05 1.41121e-05 0)
(9.39397e-05 1.40947e-05 0)
(8.90534e-05 1.40505e-05 0)
(8.41877e-05 1.39784e-05 0)
(7.93524e-05 1.38772e-05 0)
(7.45575e-05 1.37458e-05 0)
(6.98134e-05 1.3583e-05 0)
(6.51307e-05 1.33879e-05 0)
(6.05206e-05 1.31593e-05 0)
(5.59946e-05 1.2896e-05 0)
(5.1564e-05 1.25972e-05 0)
(4.72407e-05 1.22619e-05 0)
(4.3037e-05 1.18891e-05 0)
(3.89655e-05 1.1478e-05 0)
(3.50382e-05 1.10281e-05 0)
(3.12675e-05 1.05391e-05 0)
(2.76661e-05 1.00107e-05 0)
(2.42466e-05 9.44293e-06 0)
(2.10209e-05 8.83627e-06 0)
(1.80004e-05 8.19203e-06 0)
(1.51961e-05 7.51189e-06 0)
(1.26185e-05 6.79832e-06 0)
(1.02766e-05 6.05502e-06 0)
(8.1777e-06 5.28722e-06 0)
(6.32713e-06 4.50208e-06 0)
(4.72826e-06 3.70892e-06 0)
(3.38158e-06 2.9199e-06 0)
(2.28307e-06 2.15174e-06 0)
(1.42366e-06 1.42603e-06 0)
(7.89789e-07 7.71392e-07 0)
(3.62087e-07 2.23421e-07 0)
(1.12483e-07 -1.72071e-07 0)
(3.78149e-09 -3.55854e-07 0)
(-1.02518e-08 -2.50686e-07 0)
(1.22269e-09 2.3728e-07 0)
(7.04001e-08 2.51811e-07 0)
(2.89763e-07 -7.26985e-08 0)
(6.91507e-07 -6.47319e-07 0)
(1.30589e-06 -1.40504e-06 0)
(2.15865e-06 -2.29196e-06 0)
(3.26835e-06 -3.26524e-06 0)
(4.64724e-06 -4.29126e-06 0)
(6.30249e-06 -5.34393e-06 0)
(8.23741e-06 -6.40264e-06 0)
(1.04516e-05 -7.45126e-06 0)
(1.29418e-05 -8.47759e-06 0)
(1.57018e-05 -9.47251e-06 0)
(1.87232e-05 -1.04292e-05 0)
(2.19965e-05 -1.13425e-05 0)
(2.55107e-05 -1.22087e-05 0)
(2.92541e-05 -1.30252e-05 0)
(3.3214e-05 -1.37902e-05 0)
(3.7377e-05 -1.45031e-05 0)
(4.17296e-05 -1.51635e-05 0)
(4.62578e-05 -1.57715e-05 0)
(5.09479e-05 -1.63276e-05 0)
(5.57861e-05 -1.68325e-05 0)
(6.07588e-05 -1.7287e-05 0)
(6.58526e-05 -1.76922e-05 0)
(7.10539e-05 -1.80494e-05 0)
(7.63499e-05 -1.83599e-05 0)
(8.17277e-05 -1.86251e-05 0)
(8.7175e-05 -1.88464e-05 0)
(9.26798e-05 -1.90252e-05 0)
(9.82304e-05 -1.91631e-05 0)
(0.000103815 -1.92616e-05 0)
(0.000109423 -1.93221e-05 0)
(0.000115044 -1.93463e-05 0)
(0.000120667 -1.93355e-05 0)
(0.000126284 -1.92912e-05 0)
(0.000131883 -1.92147e-05 0)
(0.000137457 -1.91075e-05 0)
(0.000142997 -1.89709e-05 0)
(0.000148494 -1.88064e-05 0)
(0.000153941 -1.86152e-05 0)
(0.00015933 -1.83986e-05 0)
(0.000164653 -1.81579e-05 0)
(0.000169903 -1.78942e-05 0)
(0.000175076 -1.76087e-05 0)
(0.000180163 -1.73025e-05 0)
(0.000185159 -1.69767e-05 0)
(0.000190058 -1.66323e-05 0)
(0.000194856 -1.62704e-05 0)
(0.000199547 -1.58919e-05 0)
(0.000204127 -1.54977e-05 0)
(0.00020859 -1.50889e-05 0)
(0.000212933 -1.46662e-05 0)
(0.000217151 -1.42304e-05 0)
(0.000221241 -1.37824e-05 0)
(0.0002252 -1.33229e-05 0)
(0.000229023 -1.28526e-05 0)
(0.000232708 -1.23723e-05 0)
(0.000236253 -1.18825e-05 0)
(0.000239653 -1.1384e-05 0)
(0.000242907 -1.08772e-05 0)
(0.000246012 -1.03629e-05 0)
(0.000248967 -9.84144e-06 0)
(0.000251768 -9.31347e-06 0)
(0.000254414 -8.77947e-06 0)
(0.000256904 -8.2399e-06 0)
(0.000259235 -7.69523e-06 0)
(0.000261406 -7.14586e-06 0)
(0.000263417 -6.59222e-06 0)
(0.000265264 -6.03469e-06 0)
(0.000266949 -5.47366e-06 0)
(0.000268469 -4.9095e-06 0)
(0.000269823 -4.34256e-06 0)