/*--------------------------------*- C++ -*----------------------------------*\
  =========                 |
  \\      /  F ield         | OpenFOAM: The Open Source CFD Toolbox
   \\    /   O peration     | Website:  https://openfoam.org
    \\  /    A nd           | Version:  7
     \\/     M anipulation  |
\*---------------------------------------------------------------------------*/
FoamFile
{
    version     2.0;
    format      ascii;
    class       volScalarField;
    location    "0.4875";
    object      p;
}
// * * * * * * * * * * * * * * * * * * * * * * * * * * * * * * * * * * * * * //

dimensions      [0 2 -2 0 0 0 0];

internalField   nonuniform List<scalar> 
51200
(
-2.80292e-09
1.78585e-06
4.49522e-06
7.14158e-06
9.33864e-06
1.12374e-05
1.29005e-05
1.43708e-05
1.56666e-05
1.68057e-05
1.77974e-05
1.86506e-05
1.937e-05
1.99595e-05
2.04207e-05
2.07601e-05
2.0983e-05
2.10916e-05
2.10903e-05
2.09815e-05
2.07668e-05
2.045e-05
2.00345e-05
1.95247e-05
1.89226e-05
1.82321e-05
1.74571e-05
1.65981e-05
1.56588e-05
1.4642e-05
1.35492e-05
1.23841e-05
1.11509e-05
9.85264e-06
8.49212e-06
7.07181e-06
5.5945e-06
4.06439e-06
2.48412e-06
8.55108e-07
-8.19385e-07
-2.53757e-06
-4.2996e-06
-6.10321e-06
-7.9456e-06
-9.82537e-06
-1.17413e-05
-1.36913e-05
-1.56739e-05
-1.7687e-05
-1.97285e-05
-2.17967e-05
-2.38901e-05
-2.6007e-05
-2.81472e-05
-3.03106e-05
-3.24956e-05
-3.47001e-05
-3.69225e-05
-3.9163e-05
-4.14226e-05
-4.36997e-05
-4.59922e-05
-4.82997e-05
-5.06213e-05
-5.29554e-05
-5.53012e-05
-5.76588e-05
-6.00274e-05
-6.24069e-05
-6.47979e-05
-6.71994e-05
-6.96097e-05
-7.20284e-05
-7.44557e-05
-7.68909e-05
-7.93325e-05
-8.17799e-05
-8.42333e-05
-8.66934e-05
-8.91594e-05
-9.16302e-05
-9.41047e-05
-9.6582e-05
-9.9062e-05
-0.000101545
-0.000104031
-0.000106518
-0.000109005
-0.000111491
-0.000113978
-0.000116463
-0.000118946
-0.000121424
-0.000123897
-0.000126365
-0.000128827
-0.000131283
-0.000133732
-0.000136172
-0.000138599
-0.000141014
-0.000143415
-0.000145802
-0.000148172
-0.000150524
-0.000152855
-0.000155166
-0.000157456
-0.000159723
-0.000161964
-0.000164176
-0.000166359
-0.00016851
-0.000170628
-0.000172711
-0.000174758
-0.000176764
-0.000178729
-0.00018065
-0.000182524
-0.000184351
-0.000186129
-0.000187853
-0.000189523
-0.000191137
-0.000192692
-0.000194187
-0.000195617
-0.000196978
-0.00019827
-0.000199491
-0.00020064
-0.000201714
-0.000202713
-0.000203633
-0.000204471
-0.000205226
-0.000205897
-0.000206482
-0.000206981
-0.000207394
-0.000207719
-0.000207957
-0.000208109
-0.000208174
-0.000208155
-0.000208056
-0.000207881
-0.000207633
-0.000207321
-0.000206953
-0.000206541
-0.000206099
-0.000205648
-0.000205209
-0.000204812
-0.000204493
-0.000204297
-0.000204249
1.67041e-06
3.38055e-06
5.55057e-06
7.67756e-06
9.57326e-06
1.12523e-05
1.27453e-05
1.40772e-05
1.52611e-05
1.63071e-05
1.72211e-05
1.80076e-05
1.86728e-05
1.92165e-05
1.96426e-05
1.99541e-05
2.0153e-05
2.02447e-05
2.0232e-05
2.0117e-05
1.99014e-05
1.95869e-05
1.91785e-05
1.86781e-05
1.80885e-05
1.74125e-05
1.66513e-05
1.58082e-05
1.48873e-05
1.389e-05
1.28193e-05
1.16783e-05
1.04689e-05
9.19535e-06
7.86032e-06
6.46556e-06
5.01454e-06
3.51003e-06
1.95374e-06
3.49059e-07
-1.30049e-06
-2.99464e-06
-4.73307e-06
-6.5131e-06
-8.33309e-06
-1.01921e-05
-1.20876e-05
-1.40178e-05
-1.59806e-05
-1.79742e-05
-1.99975e-05
-2.20492e-05
-2.4127e-05
-2.62287e-05
-2.83542e-05
-3.05041e-05
-3.26768e-05
-3.48696e-05
-3.70821e-05
-3.93143e-05
-4.1565e-05
-4.38329e-05
-4.61169e-05
-4.84168e-05
-5.07318e-05
-5.30605e-05
-5.54018e-05
-5.77548e-05
-6.01189e-05
-6.24949e-05
-6.48829e-05
-6.72809e-05
-6.96879e-05
-7.21044e-05
-7.45301e-05
-7.69633e-05
-7.94028e-05
-8.18481e-05
-8.42995e-05
-8.67566e-05
-8.92194e-05
-9.16869e-05
-9.41584e-05
-9.66326e-05
-9.91091e-05
-0.000101588
-0.00010407
-0.000106551
-0.000109033
-0.000111513
-0.000113992
-0.00011647
-0.000118944
-0.000121413
-0.000123876
-0.000126334
-0.000128784
-0.000131228
-0.000133663
-0.000136089
-0.000138502
-0.000140901
-0.000143285
-0.000145652
-0.000148003
-0.000150334
-0.000152646
-0.000154937
-0.000157205
-0.000159448
-0.000161664
-0.000163851
-0.000166008
-0.000168135
-0.000170226
-0.000172282
-0.000174299
-0.000176277
-0.000178213
-0.000180106
-0.000181952
-0.000183751
-0.0001855
-0.000187196
-0.000188837
-0.000190423
-0.000191951
-0.00019342
-0.000194824
-0.000196162
-0.000197431
-0.000198631
-0.00019976
-0.000200817
-0.0002018
-0.000202708
-0.000203536
-0.000204283
-0.00020495
-0.000205536
-0.000206039
-0.00020646
-0.000206797
-0.000207053
-0.000207227
-0.000207322
-0.000207339
-0.000207281
-0.000207153
-0.000206961
-0.000206711
-0.000206412
-0.000206076
-0.000205716
-0.000205349
-0.000204994
-0.000204673
-0.000204414
-0.000204249
-0.000204201
3.98837e-06
5.21958e-06
6.75637e-06
8.39904e-06
9.9768e-06
1.14341e-05
1.27625e-05
1.39632e-05
1.50422e-05
1.60029e-05
1.68444e-05
1.75716e-05
1.81834e-05
1.8684e-05
1.9077e-05
1.93603e-05
1.95381e-05
1.96126e-05
1.95868e-05
1.94639e-05
1.92432e-05
1.89285e-05
1.85222e-05
1.80267e-05
1.74456e-05
1.67796e-05
1.60302e-05
1.52002e-05
1.42919e-05
1.33086e-05
1.22537e-05
1.11296e-05
9.93878e-06
8.68379e-06
7.36657e-06
5.99102e-06
4.56049e-06
3.0755e-06
1.53879e-06
-4.56812e-08
-1.67623e-06
-3.352e-06
-5.07135e-06
-6.83287e-06
-8.63505e-06
-1.0477e-05
-1.23568e-05
-1.42719e-05
-1.62193e-05
-1.8198e-05
-2.02075e-05
-2.22462e-05
-2.43118e-05
-2.64021e-05
-2.85171e-05
-3.06567e-05
-3.28186e-05
-3.50013e-05
-3.72056e-05
-3.94308e-05
-4.16747e-05
-4.39366e-05
-4.62156e-05
-4.85104e-05
-5.08208e-05
-5.31457e-05
-5.54828e-05
-5.78315e-05
-6.01927e-05
-6.25668e-05
-6.49525e-05
-6.73478e-05
-6.97529e-05
-7.21684e-05
-7.45929e-05
-7.70245e-05
-7.9462e-05
-8.19059e-05
-8.43562e-05
-8.68124e-05
-8.92737e-05
-9.17393e-05
-9.42081e-05
-9.66797e-05
-9.91538e-05
-0.00010163
-0.000104107
-0.000106585
-0.000109061
-0.000111538
-0.000114013
-0.000116484
-0.000118951
-0.000121412
-0.000123868
-0.000126317
-0.000128759
-0.000131193
-0.000133617
-0.000136031
-0.000138432
-0.000140819
-0.00014319
-0.000145542
-0.000147876
-0.000150191
-0.000152487
-0.000154761
-0.000157012
-0.000159237
-0.000161433
-0.000163599
-0.000165735
-0.00016784
-0.000169911
-0.000171945
-0.00017394
-0.000175895
-0.000177808
-0.000179677
-0.000181501
-0.000183277
-0.000185003
-0.000186676
-0.000188295
-0.000189858
-0.000191365
-0.000192812
-0.000194197
-0.000195516
-0.000196768
-0.000197951
-0.000199064
-0.000200107
-0.000201079
-0.000201976
-0.000202797
-0.000203541
-0.000204205
-0.000204791
-0.000205299
-0.000205727
-0.000206074
-0.000206344
-0.000206536
-0.000206654
-0.000206698
-0.000206673
-0.000206582
-0.00020643
-0.000206226
-0.000205977
-0.000205692
-0.000205385
-0.000205071
-0.000204765
-0.000204484
-0.000204249
-0.000204084
-0.000204006
6.01347e-06
6.84885e-06
7.95054e-06
9.20958e-06
1.05002e-05
1.17475e-05
1.2916e-05
1.39922e-05
1.49705e-05
1.58471e-05
1.66218e-05
1.72911e-05
1.78541e-05
1.83143e-05
1.8671e-05
1.8927e-05
1.90829e-05
1.91399e-05
1.91006e-05
1.89662e-05
1.8739e-05
1.84206e-05
1.8013e-05
1.75193e-05
1.69411e-05
1.62804e-05
1.55393e-05
1.47188e-05
1.38213e-05
1.28495e-05
1.1806e-05
1.06949e-05
9.51861e-06
8.27778e-06
6.9752e-06
5.61507e-06
4.19927e-06
2.72939e-06
1.20938e-06
-3.58775e-07
-1.97437e-06
-3.63528e-06
-5.34003e-06
-7.08722e-06
-8.87534e-06
-1.07035e-05
-1.25703e-05
-1.44727e-05
-1.6408e-05
-1.83753e-05
-2.0374e-05
-2.24014e-05
-2.44561e-05
-2.65378e-05
-2.86454e-05
-3.07771e-05
-3.2931e-05
-3.51068e-05
-3.73049e-05
-3.9524e-05
-4.17623e-05
-4.40192e-05
-4.62939e-05
-4.85851e-05
-5.08924e-05
-5.32142e-05
-5.55483e-05
-5.78946e-05
-6.02546e-05
-6.26275e-05
-6.50113e-05
-6.74052e-05
-6.98096e-05
-7.22246e-05
-7.46484e-05
-7.70791e-05
-7.95158e-05
-8.19589e-05
-8.44085e-05
-8.68641e-05
-8.93249e-05
-9.17892e-05
-9.42562e-05
-9.67263e-05
-9.91994e-05
-0.000101674
-0.000104148
-0.000106621
-0.000109095
-0.000111568
-0.000114039
-0.000116506
-0.000118968
-0.000121423
-0.000123872
-0.000126314
-0.00012875
-0.000131176
-0.000133591
-0.000135995
-0.000138385
-0.000140761
-0.000143121
-0.000145462
-0.000147783
-0.000150084
-0.000152366
-0.000154626
-0.000156862
-0.000159071
-0.000161251
-0.000163401
-0.00016552
-0.000167606
-0.000169658
-0.000171674
-0.00017365
-0.000175586
-0.00017748
-0.000179331
-0.000181136
-0.000182893
-0.000184599
-0.000186253
-0.000187854
-0.000189399
-0.000190888
-0.000192317
-0.000193685
-0.000194988
-0.000196226
-0.000197396
-0.000198498
-0.000199531
-0.000200493
-0.000201382
-0.000202197
-0.000202936
-0.0002036
-0.000204188
-0.000204699
-0.000205134
-0.000205491
-0.000205771
-0.000205978
-0.000206114
-0.00020618
-0.00020618
-0.000206117
-0.000205996
-0.000205825
-0.00020561
-0.00020536
-0.000205086
-0.000204801
-0.000204518
-0.000204252
-0.000204017
-0.000203827
-0.000203689
7.45429e-06
8.14117e-06
9.00438e-06
1.00041e-05
1.10691e-05
1.21328e-05
1.31555e-05
1.41145e-05
1.49942e-05
1.57901e-05
1.64948e-05
1.71059e-05
1.7622e-05
1.80397e-05
1.83614e-05
1.85876e-05
1.87194e-05
1.87582e-05
1.87035e-05
1.85569e-05
1.83212e-05
1.79971e-05
1.75874e-05
1.70933e-05
1.65163e-05
1.58588e-05
1.5122e-05
1.43078e-05
1.34186e-05
1.24561e-05
1.14228e-05
1.03227e-05
9.15728e-06
7.92841e-06
6.63957e-06
5.29242e-06
3.88893e-06
2.43278e-06
9.2685e-07
-6.27516e-07
-2.22954e-06
-3.87718e-06
-5.56892e-06
-7.30378e-06
-9.08039e-06
-1.08971e-05
-1.2752e-05
-1.46427e-05
-1.65676e-05
-1.85259e-05
-2.05153e-05
-2.25329e-05
-2.45785e-05
-2.66526e-05
-2.87529e-05
-3.0877e-05
-3.30245e-05
-3.51953e-05
-3.73883e-05
-3.96027e-05
-4.18368e-05
-4.40898e-05
-4.63611e-05
-4.86498e-05
-5.09544e-05
-5.3273e-05
-5.56048e-05
-5.79504e-05
-6.03099e-05
-6.26816e-05
-6.50642e-05
-6.7458e-05
-6.98628e-05
-7.22776e-05
-7.47007e-05
-7.71311e-05
-7.9568e-05
-8.20114e-05
-8.44611e-05
-8.69168e-05
-8.93771e-05
-9.18405e-05
-9.43066e-05
-9.6776e-05
-9.92481e-05
-0.000101721
-0.000104193
-0.000106664
-0.000109135
-0.000111605
-0.000114073
-0.000116536
-0.000118993
-0.000121444
-0.000123887
-0.000126323
-0.000128752
-0.000131171
-0.000133579
-0.000135974
-0.000138355
-0.000140721
-0.00014307
-0.000145399
-0.00014771
-0.00015
-0.00015227
-0.000154516
-0.000156737
-0.000158932
-0.000161097
-0.000163232
-0.000165336
-0.000167406
-0.000169441
-0.000171439
-0.000173398
-0.000175316
-0.000177193
-0.000179028
-0.000180816
-0.000182554
-0.000184243
-0.000185879
-0.000187463
-0.000188993
-0.000190466
-0.00019188
-0.000193232
-0.000194521
-0.000195745
-0.000196904
-0.000197996
-0.00019902
-0.000199974
-0.000200856
-0.000201665
-0.000202402
-0.000203066
-0.000203655
-0.00020417
-0.00020461
-0.000204976
-0.000205267
-0.000205487
-0.000205638
-0.000205723
-0.000205744
-0.000205704
-0.000205608
-0.000205462
-0.000205272
-0.000205047
-0.000204796
-0.000204529
-0.000204256
-0.000203989
-0.000203739
-0.000203509
-0.000203294
8.5342e-06
9.16536e-06
9.90252e-06
1.07389e-05
1.16409e-05
1.25589e-05
1.34568e-05
1.43095e-05
1.5102e-05
1.58201e-05
1.64576e-05
1.7013e-05
1.74804e-05
1.78581e-05
1.81453e-05
1.83418e-05
1.84486e-05
1.8467e-05
1.83956e-05
1.82362e-05
1.79897e-05
1.76586e-05
1.72443e-05
1.67479e-05
1.61713e-05
1.55151e-05
1.47807e-05
1.39706e-05
1.30865e-05
1.21309e-05
1.11066e-05
1.0015e-05
8.85808e-06
7.6396e-06
6.36164e-06
5.02497e-06
3.63286e-06
2.18861e-06
6.94124e-07
-8.4918e-07
-2.43976e-06
-4.07601e-06
-5.75657e-06
-7.48079e-06
-9.24771e-06
-1.1055e-05
-1.28996e-05
-1.47802e-05
-1.66966e-05
-1.86466e-05
-2.06274e-05
-2.26376e-05
-2.46768e-05
-2.67446e-05
-2.88384e-05
-3.09563e-05
-3.30989e-05
-3.52653e-05
-3.74543e-05
-3.96648e-05
-4.18957e-05
-4.41457e-05
-4.6415e-05
-4.87022e-05
-5.10047e-05
-5.33212e-05
-5.56521e-05
-5.79977e-05
-6.0357e-05
-6.27281e-05
-6.51106e-05
-6.75053e-05
-6.99112e-05
-7.23265e-05
-7.47497e-05
-7.71802e-05
-7.96177e-05
-8.20622e-05
-8.45129e-05
-8.69692e-05
-8.94295e-05
-9.18929e-05
-9.43595e-05
-9.6829e-05
-9.93003e-05
-0.000101772
-0.000104242
-0.000106713
-0.000109183
-0.000111651
-0.000114115
-0.000116574
-0.000119028
-0.000121474
-0.000123913
-0.000126345
-0.000128768
-0.00013118
-0.000133581
-0.000135969
-0.000138343
-0.0001407
-0.000143039
-0.000145358
-0.000147658
-0.000149938
-0.000152197
-0.000154432
-0.000156641
-0.000158821
-0.000160973
-0.000163094
-0.000165184
-0.00016724
-0.00016926
-0.000171243
-0.000173186
-0.000175089
-0.000176951
-0.000178769
-0.000180541
-0.000182264
-0.000183937
-0.000185558
-0.000187126
-0.000188641
-0.0001901
-0.000191501
-0.00019284
-0.000194117
-0.00019533
-0.000196478
-0.000197561
-0.000198576
-0.000199523
-0.0002004
-0.000201205
-0.00020194
-0.000202604
-0.000203195
-0.000203713
-0.000204158
-0.00020453
-0.000204831
-0.000205063
-0.000205228
-0.000205328
-0.000205366
-0.000205346
-0.000205268
-0.00020514
-0.000204968
-0.00020476
-0.000204522
-0.000204263
-0.00020399
-0.000203711
-0.000203437
-0.000203156
-0.000202858
9.37182e-06
9.99699e-06
1.06726e-05
1.14075e-05
1.21985e-05
1.30077e-05
1.38035e-05
1.45669e-05
1.52794e-05
1.59283e-05
1.65066e-05
1.70079e-05
1.74291e-05
1.77672e-05
1.80207e-05
1.81888e-05
1.82709e-05
1.82676e-05
1.81791e-05
1.80051e-05
1.77477e-05
1.7408e-05
1.69867e-05
1.64863e-05
1.59074e-05
1.52506e-05
1.45174e-05
1.37094e-05
1.28282e-05
1.18778e-05
1.08594e-05
9.77411e-06
8.62488e-06
7.41431e-06
6.14405e-06
4.81594e-06
3.43358e-06
1.99919e-06
5.13927e-07
-1.0201e-06
-2.60132e-06
-4.22858e-06
-5.90028e-06
-7.61595e-06
-9.37466e-06
-1.11736e-05
-1.301e-05
-1.48836e-05
-1.6793e-05
-1.87352e-05
-2.07088e-05
-2.27134e-05
-2.47477e-05
-2.68102e-05
-2.8899e-05
-3.10129e-05
-3.31519e-05
-3.53153e-05
-3.75013e-05
-3.97091e-05
-4.19376e-05
-4.4186e-05
-4.64543e-05
-4.87404e-05
-5.10414e-05
-5.33573e-05
-5.56887e-05
-5.80351e-05
-6.03945e-05
-6.2766e-05
-6.51498e-05
-6.75459e-05
-6.99532e-05
-7.23698e-05
-7.47941e-05
-7.72257e-05
-7.96645e-05
-8.21107e-05
-8.45632e-05
-8.70204e-05
-8.94812e-05
-9.19455e-05
-9.44138e-05
-9.68844e-05
-9.93554e-05
-0.000101826
-0.000104296
-0.000106766
-0.000109236
-0.000111703
-0.000114165
-0.000116622
-0.000119072
-0.000121515
-0.000123951
-0.000126379
-0.000128797
-0.000131203
-0.000133599
-0.000135981
-0.000138348
-0.000140698
-0.000143029
-0.00014534
-0.000147631
-0.000149902
-0.00015215
-0.000154375
-0.000156572
-0.000158741
-0.000160881
-0.000162991
-0.000165068
-0.000167111
-0.000169118
-0.000171087
-0.000173017
-0.000174907
-0.000176755
-0.000178559
-0.000180316
-0.000182025
-0.000183684
-0.000185291
-0.000186847
-0.000188349
-0.000189795
-0.000191184
-0.000192512
-0.000193778
-0.000194981
-0.000196121
-0.000197195
-0.000198204
-0.000199145
-0.000200016
-0.000200818
-0.000201552
-0.000202215
-0.000202808
-0.000203329
-0.000203778
-0.000204157
-0.000204466
-0.000204709
-0.000204885
-0.000204998
-0.000205049
-0.000205042
-0.000204978
-0.000204863
-0.000204703
-0.000204504
-0.000204272
-0.000204012
-0.00020373
-0.000203432
-0.000203126
-0.000202791
-0.000202408
1.00553e-05
1.06989e-05
1.13473e-05
1.20224e-05
1.27394e-05
1.34685e-05
1.4187e-05
1.48748e-05
1.55181e-05
1.6107e-05
1.66309e-05
1.70836e-05
1.74616e-05
1.77616e-05
1.79827e-05
1.81229e-05
1.81805e-05
1.81562e-05
1.80492e-05
1.78604e-05
1.75911e-05
1.72414e-05
1.68129e-05
1.63067e-05
1.57231e-05
1.50639e-05
1.43297e-05
1.35218e-05
1.2643e-05
1.16953e-05
1.068e-05
9.5995e-06
8.45633e-06
7.2514e-06
5.98678e-06
4.66577e-06
3.29086e-06
1.86376e-06
3.86032e-07
-1.1404e-06
-2.71417e-06
-4.33424e-06
-5.99953e-06
-7.70905e-06
-9.46072e-06
-1.12523e-05
-1.30828e-05
-1.49512e-05
-1.68547e-05
-1.87909e-05
-2.07595e-05
-2.27602e-05
-2.47906e-05
-2.68487e-05
-2.89341e-05
-3.10455e-05
-3.31823e-05
-3.53437e-05
-3.75281e-05
-3.97342e-05
-4.19617e-05
-4.42102e-05
-4.6478e-05
-4.87631e-05
-5.10639e-05
-5.33808e-05
-5.57137e-05
-5.80611e-05
-6.04216e-05
-6.27949e-05
-6.51811e-05
-6.75794e-05
-6.99885e-05
-7.24067e-05
-7.4833e-05
-7.72666e-05
-7.97078e-05
-8.21565e-05
-8.46111e-05
-8.70699e-05
-8.95324e-05
-9.19988e-05
-9.44691e-05
-9.6941e-05
-9.94127e-05
-0.000101884
-0.000104355
-0.000106826
-0.000109296
-0.000111762
-0.000114223
-0.000116678
-0.000119126
-0.000121567
-0.000124
-0.000126424
-0.000128839
-0.000131242
-0.000133633
-0.00013601
-0.000138372
-0.000140716
-0.000143039
-0.000145344
-0.000147628
-0.00014989
-0.00015213
-0.000154345
-0.000156532
-0.000158692
-0.000160822
-0.000162921
-0.000164988
-0.000167021
-0.000169016
-0.000170973
-0.000172891
-0.000174769
-0.000176605
-0.000178396
-0.00018014
-0.000181836
-0.000183483
-0.000185079
-0.000186623
-0.000188115
-0.000189551
-0.000190928
-0.000192246
-0.000193503
-0.000194698
-0.00019583
-0.000196898
-0.0001979
-0.000198836
-0.000199704
-0.000200504
-0.000201236
-0.000201899
-0.000202493
-0.000203017
-0.00020347
-0.000203854
-0.000204171
-0.000204422
-0.000204608
-0.000204731
-0.000204792
-0.000204793
-0.000204738
-0.000204631
-0.000204478
-0.000204283
-0.00020405
-0.000203783
-0.000203486
-0.000203163
-0.000202822
-0.000202432
-0.000201966
1.06378e-05
1.13148e-05
1.1959e-05
1.26008e-05
1.32669e-05
1.39409e-05
1.45988e-05
1.52263e-05
1.58128e-05
1.63479e-05
1.68237e-05
1.72332e-05
1.75721e-05
1.78376e-05
1.80274e-05
1.81403e-05
1.81743e-05
1.81284e-05
1.80032e-05
1.77992e-05
1.75164e-05
1.71563e-05
1.67195e-05
1.62058e-05
1.56166e-05
1.4953e-05
1.42155e-05
1.3407e-05
1.25286e-05
1.15816e-05
1.05678e-05
9.4906e-06
8.35099e-06
7.14954e-06
5.8897e-06
4.5742e-06
3.20438e-06
1.78265e-06
3.10543e-07
-1.21037e-06
-2.77836e-06
-4.39304e-06
-6.05402e-06
-7.75895e-06
-9.50507e-06
-1.12915e-05
-1.3118e-05
-1.49819e-05
-1.68806e-05
-1.8813e-05
-2.07786e-05
-2.27765e-05
-2.48041e-05
-2.68597e-05
-2.89431e-05
-3.10534e-05
-3.31893e-05
-3.53498e-05
-3.75334e-05
-3.97391e-05
-4.19673e-05
-4.42168e-05
-4.64848e-05
-4.87699e-05
-5.10719e-05
-5.3391e-05
-5.5726e-05
-5.80751e-05
-6.04376e-05
-6.28139e-05
-6.52035e-05
-6.76049e-05
-7.00164e-05
-7.2437e-05
-7.48658e-05
-7.73025e-05
-7.97471e-05
-8.21988e-05
-8.46559e-05
-8.71172e-05
-8.95827e-05
-9.20525e-05
-9.45252e-05
-9.69988e-05
-9.94721e-05
-0.000101945
-0.000104419
-0.000106891
-0.000109361
-0.000111828
-0.000114288
-0.000116743
-0.00011919
-0.000121629
-0.000124061
-0.000126483
-0.000128895
-0.000131296
-0.000133684
-0.000136058
-0.000138415
-0.000140753
-0.000143071
-0.00014537
-0.000147648
-0.000149904
-0.000152136
-0.000154343
-0.000156522
-0.000158674
-0.000160796
-0.000162887
-0.000164944
-0.000166967
-0.000168952
-0.000170899
-0.000172807
-0.000174675
-0.0001765
-0.00017828
-0.000180013
-0.000181698
-0.000183334
-0.000184921
-0.000186456
-0.000187938
-0.000189365
-0.000190733
-0.000192042
-0.000193291
-0.000194479
-0.000195605
-0.000196667
-0.000197664
-0.000198596
-0.00019946
-0.000200258
-0.00020099
-0.000201653
-0.000202247
-0.000202773
-0.000203231
-0.00020362
-0.000203943
-0.0002042
-0.000204394
-0.000204524
-0.000204591
-0.000204599
-0.000204549
-0.000204447
-0.000204296
-0.000204101
-0.000203862
-0.000203584
-0.000203267
-0.000202918
-0.000202539
-0.000202096
-0.000201552
1.11643e-05
1.18798e-05
1.2533e-05
1.31573e-05
1.37932e-05
1.4425e-05
1.50372e-05
1.5619e-05
1.61584e-05
1.66481e-05
1.70813e-05
1.74519e-05
1.77559e-05
1.79897e-05
1.81507e-05
1.82373e-05
1.82479e-05
1.81814e-05
1.80386e-05
1.78185e-05
1.75222e-05
1.71505e-05
1.67036e-05
1.61817e-05
1.55857e-05
1.49161e-05
1.41744e-05
1.33633e-05
1.24832e-05
1.15354e-05
1.05228e-05
9.44656e-06
8.30785e-06
7.10882e-06
5.8523e-06
4.54015e-06
3.17396e-06
1.75604e-06
2.87704e-07
-1.22935e-06
-2.79371e-06
-4.40534e-06
-6.0631e-06
-7.76428e-06
-9.50708e-06
-1.12911e-05
-1.31148e-05
-1.4975e-05
-1.68707e-05
-1.88013e-05
-2.07652e-05
-2.27612e-05
-2.47874e-05
-2.68421e-05
-2.89251e-05
-3.10356e-05
-3.31719e-05
-3.53326e-05
-3.75165e-05
-3.97235e-05
-4.19535e-05
-4.42043e-05
-4.64732e-05
-4.87599e-05
-5.10648e-05
-5.33868e-05
-5.57244e-05
-5.80763e-05
-6.04423e-05
-6.28224e-05
-6.52159e-05
-6.7621e-05
-7.0036e-05
-7.24598e-05
-7.4892e-05
-7.73329e-05
-7.97818e-05
-8.2237e-05
-8.46972e-05
-8.71621e-05
-8.9632e-05
-9.21058e-05
-9.45815e-05
-9.70575e-05
-9.95336e-05
-0.00010201
-0.000104486
-0.000106961
-0.000109433
-0.0001119
-0.000114361
-0.000116816
-0.000119263
-0.000121703
-0.000124134
-0.000126555
-0.000128966
-0.000131365
-0.000133752
-0.000136123
-0.000138476
-0.000140811
-0.000143125
-0.000145419
-0.000147693
-0.000149943
-0.00015217
-0.00015437
-0.000156543
-0.000158687
-0.000160803
-0.000162887
-0.000164937
-0.000166951
-0.000168928
-0.000170866
-0.000172766
-0.000174624
-0.00017644
-0.000178211
-0.000179934
-0.00018161
-0.000183238
-0.000184816
-0.000186344
-0.000187818
-0.000189236
-0.000190597
-0.000191899
-0.000193141
-0.000194323
-0.000195444
-0.000196501
-0.000197494
-0.000198422
-0.000199285
-0.000200081
-0.000200812
-0.000201476
-0.000202071
-0.000202599
-0.00020306
-0.000203454
-0.000203781
-0.000204044
-0.000204243
-0.000204377
-0.00020445
-0.000204461
-0.000204414
-0.000204313
-0.000204162
-0.000203961
-0.000203714
-0.000203421
-0.000203083
-0.000202705
-0.00020229
-0.000201795
-0.000201179
1.16654e-05
1.24205e-05
1.30871e-05
1.37078e-05
1.43242e-05
1.49266e-05
1.55057e-05
1.60504e-05
1.65523e-05
1.70044e-05
1.7401e-05
1.77376e-05
1.80098e-05
1.82148e-05
1.83489e-05
1.84105e-05
1.83985e-05
1.83123e-05
1.81514e-05
1.79159e-05
1.7606e-05
1.72217e-05
1.67637e-05
1.62324e-05
1.5628e-05
1.49517e-05
1.42053e-05
1.33895e-05
1.25057e-05
1.15566e-05
1.05433e-05
9.46578e-06
8.32702e-06
7.1292e-06
5.87391e-06
4.56346e-06
3.19937e-06
1.78339e-06
3.17478e-07
-1.19722e-06
-2.76047e-06
-4.37101e-06
-6.02632e-06
-7.72518e-06
-9.46684e-06
-1.12499e-05
-1.30716e-05
-1.493e-05
-1.68247e-05
-1.87549e-05
-2.07186e-05
-2.27139e-05
-2.474e-05
-2.67953e-05
-2.88793e-05
-3.09911e-05
-3.31287e-05
-3.52906e-05
-3.74768e-05
-3.96867e-05
-4.1919e-05
-4.41716e-05
-4.64427e-05
-4.87326e-05
-5.10412e-05
-5.33668e-05
-5.57078e-05
-5.80639e-05
-6.04348e-05
-6.28197e-05
-6.52178e-05
-6.76272e-05
-7.00463e-05
-7.24743e-05
-7.49112e-05
-7.73572e-05
-7.9811e-05
-8.22706e-05
-8.47351e-05
-8.72049e-05
-8.96799e-05
-9.21581e-05
-9.46375e-05
-9.71171e-05
-9.9597e-05
-0.000102077
-0.000104557
-0.000107035
-0.00010951
-0.000111979
-0.000114442
-0.000116898
-0.000119347
-0.000121788
-0.000124219
-0.00012664
-0.000129051
-0.00013145
-0.000133836
-0.000136205
-0.000138556
-0.000140888
-0.0001432
-0.000145491
-0.000147761
-0.000150008
-0.00015223
-0.000154425
-0.000156593
-0.000158733
-0.000160843
-0.000162921
-0.000164965
-0.000166972
-0.000168941
-0.000170873
-0.000172766
-0.000174617
-0.000176426
-0.000178188
-0.000179904
-0.000181573
-0.000183194
-0.000184765
-0.000186286
-0.000187753
-0.000189164
-0.000190518
-0.000191814
-0.000193052
-0.000194229
-0.000195346
-0.0001964
-0.00019739
-0.000198316
-0.000199176
-0.000199972
-0.000200703
-0.000201367
-0.000201964
-0.000202494
-0.000202957
-0.000203353
-0.000203685
-0.000203952
-0.000204154
-0.000204292
-0.000204367
-0.000204381
-0.000204335
-0.000204233
-0.000204078
-0.00020387
-0.000203611
-0.000203301
-0.000202941
-0.000202535
-0.000202084
-0.000201541
-0.00020086
1.2165e-05
1.29578e-05
1.36423e-05
1.42629e-05
1.48691e-05
1.54539e-05
1.60067e-05
1.6522e-05
1.69935e-05
1.74145e-05
1.77807e-05
1.80874e-05
1.83315e-05
1.85099e-05
1.86191e-05
1.86572e-05
1.86243e-05
1.85186e-05
1.834e-05
1.8089e-05
1.7765e-05
1.73677e-05
1.6898e-05
1.63559e-05
1.5742e-05
1.50586e-05
1.43057e-05
1.3484e-05
1.25962e-05
1.16439e-05
1.06274e-05
9.54786e-06
8.40806e-06
7.20967e-06
5.95423e-06
4.64397e-06
3.28021e-06
1.8649e-06
3.99917e-07
-1.11468e-06
-2.67848e-06
-4.28889e-06
-5.94356e-06
-7.64245e-06
-9.38465e-06
-1.11673e-05
-1.29884e-05
-1.48469e-05
-1.67422e-05
-1.86732e-05
-2.06376e-05
-2.26338e-05
-2.46611e-05
-2.67186e-05
-2.88051e-05
-3.09192e-05
-3.30588e-05
-3.52235e-05
-3.74134e-05
-3.96273e-05
-4.18625e-05
-4.41179e-05
-4.63929e-05
-4.86874e-05
-5.10005e-05
-5.33303e-05
-5.56759e-05
-5.80373e-05
-6.0414e-05
-6.28048e-05
-6.52082e-05
-6.76226e-05
-7.00467e-05
-7.24801e-05
-7.49231e-05
-7.7375e-05
-7.9834e-05
-8.22989e-05
-8.47692e-05
-8.72453e-05
-8.9726e-05
-9.22091e-05
-9.4693e-05
-9.71772e-05
-9.9662e-05
-0.000102147
-0.000104631
-0.000107113
-0.000109592
-0.000112064
-0.00011453
-0.000116989
-0.000119441
-0.000121883
-0.000124316
-0.000126739
-0.000129151
-0.000131551
-0.000133937
-0.000136305
-0.000138655
-0.000140985
-0.000143296
-0.000145586
-0.000147854
-0.000150098
-0.000152317
-0.000154509
-0.000156674
-0.00015881
-0.000160916
-0.00016299
-0.000165028
-0.00016703
-0.000168994
-0.00017092
-0.000172808
-0.000174654
-0.000176456
-0.000178212
-0.000179923
-0.000181586
-0.000183202
-0.000184768
-0.000186283
-0.000187744
-0.00018915
-0.000190498
-0.00019179
-0.000193024
-0.000194198
-0.000195312
-0.000196363
-0.00019735
-0.000198275
-0.000199135
-0.000199931
-0.000200662
-0.000201327
-0.000201925
-0.000202456
-0.00020292
-0.000203319
-0.000203654
-0.000203924
-0.000204129
-0.00020427
-0.000204347
-0.000204361
-0.000204314
-0.000204209
-0.000204048
-0.000203831
-0.000203559
-0.000203232
-0.00020285
-0.000202415
-0.000201932
-0.000201344
-0.000200604
1.26789e-05
1.35094e-05
1.42099e-05
1.48342e-05
1.54371e-05
1.60093e-05
1.65441e-05
1.70368e-05
1.74831e-05
1.78785e-05
1.82187e-05
1.84999e-05
1.87185e-05
1.88721e-05
1.89581e-05
1.89751e-05
1.89221e-05
1.87979e-05
1.86025e-05
1.83355e-05
1.79968e-05
1.75865e-05
1.71043e-05
1.65505e-05
1.59272e-05
1.52349e-05
1.44738e-05
1.36463e-05
1.27535e-05
1.17957e-05
1.07748e-05
9.69236e-06
8.54994e-06
7.34963e-06
6.09271e-06
4.78092e-06
3.41627e-06
2.00044e-06
5.34035e-07
-9.8257e-07
-2.5475e-06
-4.15862e-06
-5.81493e-06
-7.51591e-06
-9.25951e-06
-1.10428e-05
-1.28651e-05
-1.47257e-05
-1.66229e-05
-1.85556e-05
-2.05221e-05
-2.25204e-05
-2.45504e-05
-2.66115e-05
-2.87015e-05
-3.08186e-05
-3.29619e-05
-3.5131e-05
-3.73258e-05
-3.9544e-05
-4.1783e-05
-4.40427e-05
-4.6323e-05
-4.86231e-05
-5.09414e-05
-5.32766e-05
-5.56281e-05
-5.7996e-05
-6.03793e-05
-6.27767e-05
-6.51863e-05
-6.76064e-05
-7.00366e-05
-7.24769e-05
-7.4927e-05
-7.73854e-05
-7.98504e-05
-8.23217e-05
-8.47994e-05
-8.72826e-05
-8.97696e-05
-9.22583e-05
-9.47478e-05
-9.72378e-05
-9.97284e-05
-0.000102219
-0.000104709
-0.000107196
-0.000109679
-0.000112155
-0.000114626
-0.000117089
-0.000119544
-0.00012199
-0.000124425
-0.000126851
-0.000129266
-0.000131667
-0.000134054
-0.000136422
-0.000138772
-0.000141103
-0.000143414
-0.000145704
-0.000147972
-0.000150215
-0.000152432
-0.000154622
-0.000156785
-0.000158919
-0.000161023
-0.000163092
-0.000165126
-0.000167124
-0.000169085
-0.000171008
-0.000172892
-0.000174733
-0.000176531
-0.000178284
-0.00017999
-0.000181649
-0.000183261
-0.000184823
-0.000186333
-0.00018779
-0.000189191
-0.000190537
-0.000191826
-0.000193057
-0.000194229
-0.00019534
-0.000196389
-0.000197375
-0.000198299
-0.00019916
-0.000199956
-0.000200688
-0.000201354
-0.000201952
-0.000202485
-0.000202951
-0.000203352
-0.000203688
-0.000203961
-0.000204169
-0.000204311
-0.000204389
-0.000204402
-0.000204353
-0.000204243
-0.000204075
-0.000203848
-0.000203562
-0.000203218
-0.000202814
-0.000202354
-0.000201839
-0.000201211
-0.000200417
1.32199e-05
1.40842e-05
1.48031e-05
1.54345e-05
1.60345e-05
1.65993e-05
1.71212e-05
1.75965e-05
1.80232e-05
1.8397e-05
1.87151e-05
1.89738e-05
1.91695e-05
1.93006e-05
1.93653e-05
1.93623e-05
1.92899e-05
1.91484e-05
1.89364e-05
1.86534e-05
1.83002e-05
1.78757e-05
1.73802e-05
1.68154e-05
1.61815e-05
1.54788e-05
1.47094e-05
1.3875e-05
1.29753e-05
1.20112e-05
1.0985e-05
9.89816e-06
8.75193e-06
7.54844e-06
6.28851e-06
4.97415e-06
3.6076e-06
2.18924e-06
7.19264e-07
-8.0043e-07
-2.36749e-06
-3.98132e-06
-5.64116e-06
-7.3451e-06
-9.09089e-06
-1.08767e-05
-1.27018e-05
-1.45656e-05
-1.64661e-05
-1.84018e-05
-2.03713e-05
-2.23734e-05
-2.44078e-05
-2.64733e-05
-2.85674e-05
-3.06889e-05
-3.28376e-05
-3.50128e-05
-3.7213e-05
-3.9436e-05
-4.16803e-05
-4.39458e-05
-4.62325e-05
-4.85387e-05
-5.08631e-05
-5.32049e-05
-5.55638e-05
-5.79392e-05
-6.03302e-05
-6.27349e-05
-6.51513e-05
-6.75782e-05
-7.00157e-05
-7.2464e-05
-7.49219e-05
-7.73876e-05
-7.98598e-05
-8.23391e-05
-8.48252e-05
-8.73161e-05
-8.98101e-05
-9.23054e-05
-9.48016e-05
-9.72985e-05
-9.9796e-05
-0.000102294
-0.00010479
-0.000107283
-0.000109771
-0.000112253
-0.000114729
-0.000117198
-0.000119657
-0.000122107
-0.000124547
-0.000126976
-0.000129395
-0.000131799
-0.000134187
-0.000136557
-0.000138909
-0.000141242
-0.000143555
-0.000145846
-0.000148114
-0.000150357
-0.000152574
-0.000154764
-0.000156927
-0.00015906
-0.000161162
-0.000163229
-0.000165261
-0.000167256
-0.000169215
-0.000171137
-0.000173018
-0.000174857
-0.000176652
-0.000178402
-0.000180106
-0.000181762
-0.000183371
-0.00018493
-0.000186437
-0.000187891
-0.00018929
-0.000190634
-0.000191921
-0.000193151
-0.000194321
-0.000195431
-0.000196479
-0.000197464
-0.000198388
-0.00019925
-0.000200048
-0.00020078
-0.000201447
-0.000202047
-0.00020258
-0.000203048
-0.000203451
-0.00020379
-0.000204064
-0.000204274
-0.000204417
-0.000204493
-0.000204505
-0.000204453
-0.000204338
-0.000204162
-0.000203925
-0.000203626
-0.000203264
-0.00020284
-0.000202355
-0.000201811
-0.000201146
-0.000200305
1.3798e-05
1.46936e-05
1.54323e-05
1.60697e-05
1.66706e-05
1.72302e-05
1.77425e-05
1.82048e-05
1.86153e-05
1.89709e-05
1.92693e-05
1.95077e-05
1.96831e-05
1.97943e-05
1.98397e-05
1.98172e-05
1.97272e-05
1.95683e-05
1.93398e-05
1.90415e-05
1.86728e-05
1.82335e-05
1.77252e-05
1.71483e-05
1.65025e-05
1.57898e-05
1.50116e-05
1.41681e-05
1.32603e-05
1.22894e-05
1.12569e-05
1.01646e-05
9.01342e-06
7.8052e-06
6.5412e-06
5.22349e-06
3.85322e-06
2.43021e-06
9.55701e-07
-5.67753e-07
-2.13879e-06
-3.75748e-06
-5.422e-06
-7.12965e-06
-8.87898e-06
-1.0669e-05
-1.24985e-05
-1.43666e-05
-1.62714e-05
-1.82111e-05
-2.01852e-05
-2.21927e-05
-2.42328e-05
-2.63035e-05
-2.84028e-05
-3.05302e-05
-3.26858e-05
-3.48679e-05
-3.70741e-05
-3.9303e-05
-4.1554e-05
-4.3827e-05
-4.61209e-05
-4.84341e-05
-5.07656e-05
-5.31153e-05
-5.54825e-05
-5.78666e-05
-6.02659e-05
-6.26784e-05
-6.51025e-05
-6.75376e-05
-6.9984e-05
-7.24412e-05
-7.49071e-05
-7.73809e-05
-7.9862e-05
-8.23507e-05
-8.48458e-05
-8.73452e-05
-8.98469e-05