/*--------------------------------*- C++ -*----------------------------------*\
  =========                 |
  \\      /  F ield         | OpenFOAM: The Open Source CFD Toolbox
   \\    /   O peration     | Website:  https://openfoam.org
    \\  /    A nd           | Version:  7
     \\/     M anipulation  |
\*---------------------------------------------------------------------------*/
FoamFile
{
    version     2.0;
    format      ascii;
    class       volScalarField;
    location    "0.35";
    object      p;
}
// * * * * * * * * * * * * * * * * * * * * * * * * * * * * * * * * * * * * * //

dimensions      [0 2 -2 0 0 0 0];

internalField   nonuniform List<scalar> 
12800
(
-1.76633e-06
0.000178861
-0.000906745
-0.00335103
-0.00690894
-0.0113338
-0.0163925
-0.0218715
-0.0275842
-0.0333703
-0.0390936
-0.0446387
-0.0499083
-0.0548209
-0.0593086
-0.0633153
-0.0667953
-0.0697118
-0.0720361
-0.0737463
-0.0748265
-0.0752665
-0.0750604
-0.0742065
-0.0727068
-0.0705663
-0.0677925
-0.0643955
-0.0603873
-0.0557812
-0.0505923
-0.0448366
-0.038531
-0.0316932
-0.0243412
-0.0164937
-0.00816917
0.000613515
0.00983566
0.0194787
0.0295242
0.0399541
0.0507507
0.0618969
0.0733758
0.0851711
0.0972671
0.109649
0.122301
0.135211
0.148364
0.161747
0.17535
0.18916
0.203166
0.217359
0.231728
0.246264
0.260959
0.275804
0.290793
0.305918
0.321173
0.336552
0.352049
0.36766
0.383378
0.399201
0.415123
0.431142
0.447253
0.463454
0.479741
0.496113
0.512566
0.529097
0.545706
0.562389
0.579144
0.595969
0.612862
0.629821
0.646843
0.663927
0.681069
0.698267
0.715517
0.732818
0.750164
0.767553
0.78498
0.80244
0.819928
0.83744
0.854967
0.872505
0.890045
0.907579
0.925099
0.942596
0.960058
0.977476
0.994837
1.01213
1.02934
1.04645
1.06344
1.08031
1.09703
1.11358
1.12995
1.14611
1.16204
1.17772
1.19313
1.20824
1.22303
1.23747
1.25154
1.2652
1.27843
1.2912
1.30349
1.31525
1.32648
1.33713
1.34718
1.3566
1.36537
1.37346
1.38084
1.38749
1.3934
1.39853
1.40289
1.40645
1.4092
1.41114
1.41226
1.41258
1.4121
1.41082
1.40879
1.40601
1.40253
1.3984
1.39367
1.3884
1.38269
1.37662
1.37031
1.36389
1.35752
1.35138
1.34569
1.34069
1.33664
1.33383
1.33255
1.33271
-0.000185232
-2.44163e-06
-0.00100565
-0.00313807
-0.0061758
-0.0099436
-0.0142679
-0.0189779
-0.0239171
-0.0289462
-0.033943
-0.0388015
-0.0434305
-0.0477521
-0.0517004
-0.05522
-0.058265
-0.0607979
-0.0627885
-0.0642133
-0.0650546
-0.0652998
-0.0649409
-0.0639739
-0.0623983
-0.0602166
-0.057434
-0.0540583
-0.0500989
-0.0455671
-0.0404756
-0.0348383
-0.0286699
-0.0219863
-0.0148036
-0.00713843
0.000992138
0.00957099
0.0185809
0.0280047
0.0378254
0.048026
0.0585901
0.0695015
0.0807443
0.0923031
0.104163
0.116309
0.128728
0.141407
0.154331
0.16749
0.180871
0.194463
0.208256
0.222239
0.236403
0.250738
0.265237
0.279891
0.294693
0.309635
0.324712
0.339917
0.355244
0.370688
0.386245
0.401908
0.417675
0.43354
0.449501
0.465554
0.481695
0.497922
0.514231
0.530621
0.547087
0.563628
0.58024
0.596922
0.613671
0.630485
0.647359
0.664293
0.681282
0.698323
0.715414
0.732551
0.749729
0.766945
0.784194
0.80147
0.818769
0.836084
0.85341
0.870738
0.888062
0.905372
0.922661
0.939919
0.957135
0.974298
0.991397
1.00842
1.02535
1.04217
1.05888
1.07544
1.09186
1.1081
1.12414
1.13998
1.15559
1.17094
1.18602
1.20079
1.21525
1.22935
1.24309
1.25642
1.26933
1.28179
1.29377
1.30524
1.31618
1.32657
1.33637
1.34556
1.35413
1.36203
1.36926
1.37579
1.3816
1.38668
1.39102
1.3946
1.39742
1.39947
1.40076
1.40129
1.40107
1.40012
1.39847
1.39613
1.39315
1.38958
1.38547
1.38088
1.3759
1.37062
1.36514
1.35959
1.35411
1.34886
1.34401
1.33976
1.33632
1.33389
1.33271
1.33288
0.000898324
0.0010013
-2.40299e-06
-0.0019867
-0.00473632
-0.00810905
-0.0119648
-0.0161619
-0.0205669
-0.0250584
-0.0295273
-0.0338772
-0.0380239
-0.0418942
-0.0454253
-0.0485637
-0.0512646
-0.0534908
-0.0552118
-0.0564034
-0.0570469
-0.0571286
-0.0566391
-0.0555726
-0.0539272
-0.0517035
-0.0489052
-0.0455381
-0.04161
-0.0371303
-0.0321101
-0.0265615
-0.0204979
-0.0139332
-0.00688235
0.00063959
0.00861698
0.017034
0.0258746
0.0351227
0.0447625
0.054778
0.0651538
0.0758744
0.0869249
0.0982904
0.109957
0.12191
0.134137
0.146625
0.159361
0.172333
0.18553
0.19894
0.212555
0.226363
0.240355
0.254522
0.268856
0.283348
0.297992
0.31278
0.327706
0.342763
0.357946
0.373248
0.388666
0.404193
0.419826
0.43556
0.451392
0.467317
0.483332
0.499434
0.51562
0.531885
0.548229
0.564646
0.581136
0.597694
0.614318
0.631005
0.647752
0.664556
0.681413
0.69832
0.715274
0.73227
0.749304
0.766371
0.783467
0.800587
0.817725
0.834873
0.852027
0.869178
0.886319
0.903442
0.920537
0.937594
0.954604
0.971555
0.988435
1.00523
1.02193
1.03852
1.05498
1.0713
1.08746
1.10345
1.11924
1.13481
1.15015
1.16523
1.18004
1.19455
1.20873
1.22257
1.23604
1.24911
1.26176
1.27397
1.28571
1.29695
1.30767
1.31785
1.32746
1.33647
1.34488
1.35264
1.35975
1.36619
1.37194
1.37699
1.38132
1.38493
1.38781
1.38997
1.39139
1.3921
1.3921
1.39141
1.39006
1.38807
1.38548
1.38235
1.37871
1.37464
1.37021
1.36552
1.36064
1.35571
1.35084
1.34617
1.34187
1.33808
1.33497
1.33271
1.33154
1.3316
0.00334385
0.00313673
0.00198035
-9.04403e-06
-0.00265213
-0.00582521
-0.00940835
-0.013281
-0.0173283
-0.0214441
-0.0255318
-0.0295045
-0.0332853
-0.0368066
-0.0400096
-0.0428437
-0.045266
-0.0472406
-0.0487375
-0.0497327
-0.0502073
-0.050147
-0.0495417
-0.0483847
-0.0466729
-0.044406
-0.0415862
-0.0382181
-0.0343081
-0.0298644
-0.0248967
-0.0194159
-0.0134339
-0.00696347
-1.82165e-05
0.00738788
0.0152404
0.0235245
0.0322252
0.0413276
0.0508165
0.060677
0.0708944
0.081454
0.0923416
0.103543
0.115045
0.126833
0.138895
0.151219
0.163792
0.176603
0.18964
0.202893
0.216352
0.230007
0.243849
0.257868
0.272057
0.286407
0.300912
0.315563
0.330355
0.34528
0.360334
0.37551
0.390803
0.406208
0.421721
0.437337
0.453052
0.468862
0.484763
0.500752
0.516825
0.532979
0.54921
0.565516
0.581894
0.598339
0.61485
0.631422
0.648053
0.66474
0.681477
0.698263
0.715092
0.731961
0.748865
0.7658
0.78276
0.799739
0.816733
0.833733
0.850735
0.867729
0.884709
0.901665
0.91859
0.935472
0.952301
0.969067
0.985757
1.00236
1.01886
1.03525
1.0515
1.06761
1.08355
1.09932
1.11489
1.13024
1.14535
1.16021
1.17479
1.18907
1.20303
1.21664
1.22989
1.24275
1.25519
1.26719
1.27873
1.28978
1.30033
1.31034
1.31979
1.32867
1.33695
1.34461
1.35164
1.35801
1.36372
1.36874
1.37308
1.37672
1.37966
1.38191
1.38345
1.38431
1.3845
1.38403
1.38292
1.38122
1.37895
1.37615
1.37289
1.36922
1.36521
1.36094
1.3565
1.35199
1.34753
1.34324
1.33925
1.33569
1.33271
1.33045
1.3291
1.3288
0.00691422
0.00618662
0.0047335
0.00262215
-3.15523e-05
-0.00312153
-0.00654464
-0.0101992
-0.0139874
-0.0178173
-0.0216043
-0.0252712
-0.0287487
-0.0319752
-0.0348966
-0.0374658
-0.0396426
-0.0413926
-0.0426872
-0.0435031
-0.0438217
-0.0436286
-0.0429132
-0.0416684
-0.0398903
-0.0375779
-0.0347324
-0.0313572
-0.0274579
-0.0230415
-0.0181164
-0.0126925
-0.0067806
-0.000392358
0.00645981
0.013763
0.0215036
0.0296681
0.0382422
0.047212
0.0565631
0.0662816
0.0763533
0.0867644
0.0975012
0.10855
0.119898
0.131533
0.143441
0.155611
0.168031
0.18069
0.193576
0.206681
0.219992
0.233502
0.247201
0.261079
0.275129
0.289344
0.303714
0.318234
0.332896
0.347695
0.362624
0.377677
0.39285
0.408137
0.423532
0.439033
0.454634
0.470331
0.486121
0.501998
0.517961
0.534005
0.550127
0.566323
0.582591
0.598926
0.615325
0.631785
0.648302
0.664873
0.681494
0.69816
0.714868
0.731613
0.748391
0.765196
0.782023
0.798867
0.815721
0.832579
0.849433
0.866277
0.883102
0.8999
0.916661
0.933376
0.950034
0.966624
0.983135
0.999553
1.01587
1.03206
1.04812
1.06403
1.07978
1.09534
1.1107
1.12584
1.14075
1.1554
1.16977
1.18385
1.1976
1.21101
1.22406
1.23672
1.24897
1.26079
1.27215
1.28304
1.29342
1.30329
1.31261
1.32136
1.32954
1.33711
1.34406
1.35038
1.35605
1.36107
1.36542
1.3691
1.3721
1.37443
1.3761
1.3771
1.37745
1.37718
1.3763
1.37484
1.37284
1.37034
1.3674
1.36406
1.36039
1.35647
1.35237
1.34819
1.34403
1.33999
1.33618
1.33272
1.32973
1.32734
1.32565
1.32475
0.0113732
0.00998352
0.00812146
0.00578927
0.00302534
-8.10521e-05
-0.00344129
-0.00697086
-0.0105875
-0.0142127
-0.017773
-0.0212007
-0.0244341
-0.0274178
-0.030103
-0.0324464
-0.0344107
-0.0359639
-0.037079
-0.0377338
-0.0379104
-0.0375948
-0.0367763
-0.0354477
-0.0336048
-0.0312458
-0.0283715
-0.0249844
-0.0210892
-0.0166921
-0.0118005
-0.00642345
-0.000570685
0.00574706
0.0125184
0.0197312
0.027373
0.0354309
0.0438918
0.0527423
0.061969
0.0715585
0.0814976
0.091773
0.102372
0.113281
0.124487
0.135979
0.147745
0.159772
0.17205
0.184567
0.197312
0.210277
0.22345
0.236823
0.250387
0.264132
0.278051
0.292135
0.306379
0.320773
0.335312
0.349989
0.364799
0.379734
0.394791
0.409963
0.425246
0.440635
0.456126
0.471714
0.487395
0.503165
0.51902
0.534957
0.550972
0.567062
0.583222
0.599449
0.61574
0.63209
0.648497
0.664955
0.681462
0.698013
0.714603
0.731229
0.747884
0.764564
0.781264
0.797977
0.814697
0.831418
0.848132
0.864832
0.88151
0.898157
0.914764
0.931321
0.947817
0.964242
0.980584
0.996831
1.01297
1.02898
1.04486
1.06059
1.07615
1.09153
1.1067
1.12165
1.13637
1.15083
1.16501
1.1789
1.19246
1.20569
1.21856
1.23105
1.24313
1.25478
1.26599
1.27673
1.28698
1.29672
1.30592
1.31457
1.32266
1.33016
1.33705
1.34333
1.34899
1.354
1.35837
1.36208
1.36515
1.36756
1.36933
1.37046
1.37097
1.37087
1.37018
1.36894
1.36718
1.36494
1.36225
1.35919
1.35579
1.35214
1.3483
1.34435
1.34039
1.33649
1.33276
1.32928
1.32618
1.32353
1.32138
1.31973
0.0164994
0.0143625
0.012011
0.00937852
0.00642108
0.00321316
-0.000168919
-0.00365612
-0.00718026
-0.010675
-0.0140772
-0.0173283
-0.0203741
-0.0231657
-0.0256591
-0.0278154
-0.0296005
-0.0309851
-0.0319442
-0.0324571
-0.0325068
-0.03208
-0.0311666
-0.0297593
-0.0278539
-0.0254484
-0.0225429
-0.0191397
-0.0152428
-0.0108575
-0.00599088
-0.000650839
0.00515353
0.0114123
0.0181149
0.0252502
0.0328063
0.0407711
0.0491323
0.0578772
0.0669933
0.0764677
0.0862879
0.0964411
0.106915
0.117697
0.128775
0.140137
0.151772
0.163668
0.175815
0.188201
0.200817
0.213652
0.226696
0.239942
0.253379
0.267
0.280796
0.294759
0.308882
0.323158
0.337581
0.352143
0.366839
0.381663
0.396609
0.411672
0.426847
0.442129
0.457514
0.472997
0.488574
0.50424
0.519992
0.535826
0.551738
0.567724
0.583781
0.599904
0.61609
0.632334
0.648634
0.664985
0.681382
0.697822
0.714299
0.73081
0.747348
0.763909
0.780486
0.797075
0.813668
0.830259
0.84684
0.863405
0.879944
0.896449
0.912911
0.92932
0.945665
0.961937
0.978122
0.99421
1.01019
1.02604
1.04175
1.05731
1.0727
1.08791
1.10291
1.11769
1.13224
1.14653
1.16054
1.17426
1.18766
1.20073
1.21344
1.22577
1.2377
1.24922
1.26029
1.2709
1.28103
1.29066
1.29977
1.30834
1.31635
1.32379
1.33065
1.3369
1.34254
1.34756
1.35195
1.35571
1.35884
1.36133
1.36319
1.36444
1.36508
1.36514
1.36462
1.36357
1.362
1.35996
1.35749
1.35464
1.35145
1.348
1.34433
1.34053
1.33667
1.33282
1.32907
1.32549
1.32217
1.31919
1.31649
1.31399
0.0220914
0.0191616
0.0162674
0.0132751
0.010059
0.00668134
0.00320807
-0.000305569
-0.00380402
-0.00723183
-0.0105357
-0.0136653
-0.0165738
-0.0192185
-0.0215605
-0.0235651
-0.0252018
-0.026444
-0.0272693
-0.0276584
-0.0275958
-0.0270691
-0.0260689
-0.0245882
-0.0226231
-0.0201714
-0.0172332
-0.0138104
-0.00990658
-0.00552668
-0.000677042
0.00463491
0.0104008
0.0166113
0.0232566
0.0303262
0.0378089
0.0456933
0.0539677
0.0626202
0.0716387
0.0810112
0.0907255
0.10077
0.111131
0.121799
0.132761
0.144005
0.155521
0.167298
0.179325
0.191591
0.204087
0.216803
0.229729
0.242856
0.256176
0.269681
0.283362
0.297211
0.311222
0.325387
0.3397
0.354154
0.368742
0.38346
0.398301
0.41326
0.428332
0.443513
0.458796
0.474179
0.489656
0.505223
0.520876
0.536611
0.552424
0.56831
0.584267
0.60029
0.616375
0.632518
0.648715
0.664962
0.681254
0.697587
0.713956
0.730356
0.746782
0.763229
0.779691
0.796161
0.812634
0.829102
0.845558
0.861994
0.878403
0.894775
0.911102
0.927373
0.943578
0.959707
0.975748
0.991689
1.00752
1.02322
1.03878
1.05419
1.06942
1.08447
1.09932
1.11395
1.12834
1.14248
1.15634
1.16991
1.18317
1.1961
1.20867
1.22087
1.23268
1.24407
1.25503
1.26554
1.27557
1.28511
1.29414
1.30264
1.3106
1.318
1.32482
1.33106
1.33669
1.34173
1.34615
1.34995
1.35313
1.3557
1.35766
1.35901
1.35977
1.35996
1.35959
1.35868
1.35728
1.35541
1.3531
1.35041
1.34737
1.34405
1.3405
1.33677
1.33294
1.32907
1.32521
1.32144
1.31783
1.31445
1.31115
1.30777
0.0279742
0.0242328
0.0207634
0.0173691
0.0138455
0.0102447
0.00662453
0.00302808
-0.000500315
-0.00391503
-0.00717157
-0.0102275
-0.0130429
-0.0155807
-0.0178073
-0.0196922
-0.0212085
-0.0223326
-0.0230444
-0.0233268
-0.0231656
-0.0225496
-0.0214703
-0.0199216
-0.0178996
-0.0154025
-0.0124303
-0.00898496
-0.00506965
-0.000689147
0.00415065
0.00944277
0.0151793
0.0213516
0.0279503
0.0349653
0.0423863
0.0502023
0.0584022
0.0669746
0.0759082
0.0851913
0.0948124
0.10476
0.115022
0.125587
0.136445
0.147583
0.158992
0.170661
0.182579
0.194736
0.207122
0.219728
0.232545
0.245564
0.258776
0.272173
0.285747
0.299491
0.313397
0.327458
0.341667
0.356019
0.370506
0.385124
0.399866
0.414727
0.429701
0.444785
0.459972
0.475259
0.49064
0.506112
0.52167
0.53731
0.553028
0.568819
0.58468
0.600607
0.616595
0.63264
0.648739
0.664886
0.681077
0.697308
0.713574
0.729869
0.746188
0.762527
0.778878
0.795237
0.811595
0.827947
0.844285
0.860601
0.876888
0.893136
0.909336
0.925479
0.941555
0.957552
0.97346
0.989266
1.00496
1.02052
1.03595
1.05122
1.06631
1.08123
1.09594
1.11043
1.12468
1.13869
1.15242
1.16586
1.17899
1.19179
1.20425
1.21633
1.22803
1.23933
1.25019
1.26061
1.27057
1.28004
1.28901
1.29746
1.30537
1.31274
1.31955
1.32578
1.33142
1.33647
1.34093
1.34477
1.34802
1.35066
1.3527
1.35414
1.35501
1.35531
1.35506
1.35429
1.35301
1.35127
1.34908
1.34651
1.34357
1.34033
1.33683
1.33312
1.32925
1.32528
1.32127
1.31725
1.3133
1.30948
1.30554
1.30126
0.0339968
0.0294433
0.0253824
0.021558
0.0176913
0.0138266
0.0100154
0.00629042
0.00268614
-0.000760645
-0.00401341
-0.00703687
-0.00979746
-0.0122638
-0.0144069
-0.0162007
-0.0176219
-0.0186499
-0.019267
-0.0194582
-0.0192111
-0.0185159
-0.017365
-0.0157532
-0.0136771
-0.0111354
-0.00812821
-0.00465753
-0.000726588
0.00366005
0.00849673
0.0137768
0.0194927
0.0256362
0.0321984
0.0391696
0.0465399
0.054299
0.0624362
0.0709407
0.0798015
0.0890074
0.0985473
0.10841
0.118585
0.12906
0.139825
0.150869
0.162182
0.173754
0.185573
0.197631
0.209918
0.222425
0.235142
0.248061
0.261174
0.274472
0.287948
0.301593
0.315402
0.329366
0.34348
0.357736
0.372129
0.386652
0.401301
0.416069
0.430951
0.445943
0.461039
0.476234
0.491525
0.506906
0.522373
0.537923
0.553549
0.56925
0.585019
0.600854
0.616749
0.632701
0.648705
0.664757
0.680852
0.696986
0.713152
0.729348
0.745566
0.761802
0.778049
0.794301
0.810552
0.826795
0.843022
0.859225
0.875398
0.89153
0.907614
0.923638
0.939594
0.95547
0.971256
0.986939
1.00251
1.01795
1.03325
1.04839
1.06337
1.07816
1.09274
1.10712
1.12125
1.13514
1.14875
1.16208
1.17511
1.18781
1.20016
1.21215
1.22377
1.23497
1.24576
1.25611
1.26601
1.27543
1.28435
1.29277
1.30066
1.30801
1.31481
1.32105
1.32671
1.33178
1.33627
1.34017
1.34347
1.34618
1.34829
1.34983
1.35078
1.35118
1.35103
1.35036
1.34919
1.34754
1.34545
1.34295
1.34007
1.33686
1.33336
1.32961
1.32566
1.32155
1.31732
1.31301
1.30868
1.30439
1.2998
1.29462
0.0400306
0.0346763
0.0300188
0.0257471
0.0215125
0.0173536
0.0133173
0.00942735
0.00570971
0.0021934
-0.00109219
-0.00411826
-0.0068571
-0.00928255
-0.0113704
-0.0130984
-0.014447
-0.0153984
-0.0159377
-0.0160519
-0.0157304
-0.0149651
-0.0137494
-0.0120791
-0.0099515
-0.0073658
-0.00432263
-0.000824071
0.0031265
0.00752454
0.0123645
0.0176399
0.0233435
0.0294673
0.0360027
0.0429404
0.0502708
0.0579841
0.06607
0.0745182
0.0833179
0.0924585
0.101929
0.111719
0.121818
0.132215
0.142899
0.15386
0.165088
0.176573
0.188306
0.200275
0.212473
0.22489
0.237517
0.250346
0.263368
0.276575
0.289961
0.303516
0.317235
0.33111
0.345134
0.359302
0.373607
0.388042
0.402603
0.417284
0.43208
0.446985
0.461994
0.477104
0.492308
0.507603
0.522984
0.538447
0.553988
0.569601
0.585283
0.60103
0.616837
0.6327
0.648614
0.664575
0.680578
0.696619
0.712692
0.728793
0.744915
0.761053
0.777202
0.793354
0.809504
0.825644
0.841768
0.857867
0.873933
0.889958
0.905933
0.921849
0.937695
0.95346
0.969135
0.984707
1.00016
1.01549
1.03068
1.04571
1.06058
1.07526
1.08974
1.10401
1.11804
1.13183
1.14535
1.15858
1.17151
1.18413
1.1964
1.20832
1.21986
1.231
1.24173
1.25203
1.26188
1.27126
1.28016
1.28856
1.29644
1.30379
1.31059
1.31684
1.32253
1.32764
1.33217
1.33612
1.33948
1.34225
1.34444
1.34605
1.34709
1.34757
1.3475
1.34691
1.34582
1.34424
1.3422
1.33974
1.33689
1.33367
1.33013
1.3263
1.32222
1.31793
1.31345
1.30882
1.30408
1.2993
1.29405
1.288
0.0459648
0.0398282
0.0345771
0.0298494
0.025231
0.0207562
0.0164691
0.0123858
0.00852476
0.00490833
0.00155957
-0.00149856
-0.0042437
-0.0066546
-0.00871136
-0.0103958
-0.0116913
-0.0125836
-0.0130599
-0.0131096
-0.0127241
-0.0118967
-0.0106222
-0.0088973
-0.00672038
-0.00409116
-0.0010108
0.00251825
0.00649239
0.010907
0.0157565
0.0210345
0.0267338
0.0328467
0.0393646
0.0462788
0.0535798
0.0612581
0.0693038
0.0777069
0.0864571
0.095544
0.104957
0.114686
0.124721
0.13505
0.145665
0.156554
0.167709
0.179118
0.190773
0.202665
0.214783
0.22712
0.239666
0.252414
0.265354
0.27848
0.291783
0.305257
0.318894
0.332686
0.346629
0.360714
0.374937
0.389291
0.403771
0.418371
0.433085
0.447909
0.462837
0.477866
0.492989
0.508203
0.523502
0.538883
0.554341
0.569872
0.585471
0.601135
0.616858
0.632636
0.648464
0.664339
0.680256
0.696208
0.712193
0.728203
0.744235
0.760281
0.776337
0.792396
0.808451
0.824495
0.840522
0.856524
0.872492
0.888418
0.904294
0.920109
0.935855
0.95152
0.967094
0.982565
0.997922
1.01315
1.02824
1.04318
1.05795
1.07253
1.08692
1.1011
1.11504
1.12875
1.14218
1.15534
1.1682
1.18075
1.19296
1.20481
1.2163
1.2274
1.23809
1.24835
1.25818
1.26754
1.27642
1.28481
1.29269
1.30005
1.30688
1.31315
1.31887
1.32402
1.3286
1.3326
1.33602
1.33886
1.34111
1.3428
1.34391
1.34446
1.34447
1.34394
1.3429
1.34137
1.33936
1.33691
1.33405
1.33079
1.32718
1.32323
1.31899
1.31448
1.30973
1.30475
1.29959
1.29431
1.28842
1.28152
0.0517041
0.044808
0.0389719
0.0337858
0.0287743
0.0239692
0.0194125
0.0151141
0.0110861
0.00734503
0.00390836
0.000793824
-0.00198114
-0.00439972
-0.00644611
-0.00810569
-0.00936528
-0.0102132
-0.0106395
-0.0106357
-0.010195
-0.00931233
-0.00798402
-0.0062079
-0.0039832
-0.00131046
0.00180854
0.00537089
0.00937266
0.013809
0.0186742
0.0239619
0.0296649
0.0357754
0.0422852
0.0491855
0.0564673
0.0641213
0.0721377
0.0805069
0.0892187
0.0982632
0.10763
0.11731
0.127291
0.137565
0.148121
0.15895
0.170041
0.181386
0.192975
0.204798
0.216848
0.229114
0.241589
0.254264
0.267132
0.280184
0.293414
0.306813
0.320375
0.334093
0.347961
0.361972
0.376119
0.390398
0.404802
0.419326
0.433965
0.448713
0.463566
0.478518
0.493565
0.508703
0.523925
0.539229
0.55461
0.570063
0.585583
0.601167
0.616811
0.632508
0.648256
0.66405
0.679883
0.695753
0.711654
0.727579
0.743525
0.759486
0.775454
0.791425
0.807392
0.823347
0.839285
0.855196
0.871074
0.886909
0.902694
0.918418
0.934072
0.949647
0.965131
0.980512
0.99578
1.01092
1.02593
1.04078
1.05546
1.06997
1.08428
1.09838
1.11225
1.12589
1.13926
1.15236
1.16516
1.17765
1.18981
1.20163
1.21308
1.22415
1.23482
1.24506
1.25487
1.26423
1.27312
1.28152
1.28941
1.2968
1.30365
1.30996
1.31572
1.32092
1.32556
1.32961
1.33309
1.336
1.33832
1.34007
1.34124
1.34186
1.34192
1.34145
1.34044
1.33894
1.33694
1.33448
1.33158
1.32825
1.32454
1.32045
1.31603
1.31128
1.30622
1.30088
1.2953
1.28951
1.28299
1.27528
0.0571657
0.0495351
0.0431263
0.0374841
0.0320756
0.0269312
0.022092
0.0175625
0.0133495
0.00946452
0.00592014
0.00272937
-9.4744e-05
-0.00253947
-0.00459275
-0.00624337
-0.00748125
-0.00829752
-0.00868463
-0.00863638
-0.00814792
-0.00721574
-0.00583763
-0.00401264
-0.00174103
0.000975765
0.00413528
0.00773404
0.0117677
0.0162311
0.0211184
0.0264229
0.0321374
0.0382541
0.0447649
0.0516611
0.0589338
0.0665738
0.0745716
0.0829178
0.0916024
0.100616
0.109948
0.119589
0.129529
0.139758
0.150267
0.161046
0.172085
0.183376
0.194908
0.206674
0.218664
0.230869
0.243282
0.255895
0.268699
0.281686
0.29485
0.308183
0.321679
0.335329
0.349129
0.363072
0.377151
0.391361
0.405696
0.420151
0.43472
0.449398
0.46418
0.479061
0.494037
0.509102
0.524253
0.539485
0.554792
0.570171
0.585618
0.601128
0.616696
0.632318
0.647989
0.663705
0.679462
0.695253
0.711074
0.726921
0.742786
0.758666
0.774553
0.790442
0.806327
0.8222
0.838054
0.853882
0.869677
0.885429
0.901131
0.916773
0.932345
0.947839
0.963242
0.978545
0.993735
1.0088
1.02373
1.03851
1.05313
1.06756
1.08181
1.09585
1.10967
1.12324
1.13657
1.14962
1.16238
1.17484
1.18697
1.19876
1.21019
1.22124
1.2319
1.24215
1.25196
1.26133
1.27024
1.27866
1.28659
1.29401
1.3009
1.30726
1.31307
1.31833
1.32302
1.32714
1.33069
1.33366
1.33604
1.33786
1.33909
1.33976
1.33987
1.33943
1.33846
1.33696
1.33495
1.33246
1.3295
1.32609
1.32225
1.31801
1.31337
1.30837
1.303
1.29729
1.29127
1.28499
1.27786
1.26935
0.0622772
0.0539383
0.0469713
0.0408786
0.0350732
0.029585
0.0244549
0.0196832
0.0152719
0.0112283
0.00756066
0.00427791
0.0013891
-0.00109674
-0.00317098
-0.00482563
-0.00605353
-0.00684848
-0.00720535
-0.00712006
-0.00658966
-0.00561231
-0.00418726
-0.00231485
3.55681e-06
0.00276561
0.00596806
0.00960682
0.013677
0.0181731
0.0230889
0.0284175
0.0341515
0.040283
0.0468039
0.0537056
0.0609792
0.0686157
0.0766056
0.0849396
0.0936081
0.102601
0.11191
0.121524
0.131433
0.141629
0.152102
0.162841
0.173839
0.185086
0.196573
0.208291
0.220231
0.232385
0.244746
0.257304
0.270053
0.282984
0.296091
0.309366
0.322802
0.336393
0.350133
0.364014
0.378031
0.392179
0.406451
0.420842
0.435347
0.449961
0.464678
0.479493
0.494403
0.509402
0.524485
0.539649
0.554888
0.570198
0.585576
0.601015
0.616513
0.632063
0.647663
0.663307
0.67899
0.694708
0.710455
0.726227
0.742017
0.757821
0.773633
0.789446
0.805254
0.821051
0.836829
0.852581
0.8683
0.883977
0.899604
0.915172
0.930671
0.946093
0.961426
0.976659
0.991782
1.00678
1.02165
1.03637
1.05093
1.06531
1.0795
1.0935
1.10727
1.12081
1.1341
1.14712
1.15985
1.17229
1.18441
1.19619
1.20762
1.21867
1.22934
1.2396
1.24944
1.25883
1.26777
1.27623
1.2842
1.29167
1.29862
1.30503
1.31091
1.31623
1.32099
1.32518
1.32879
1.33183
1.33428
1.33616
1.33745
1.33817
1.33832
1.33791
1.33695
1.33545
1.33342
1.33088
1.32785
1.32433
1.32036
1.31593
1.31108
1.3058
1.30012
1.29403
1.28758
1.28082
1.27308
1.26383
0.0669752
0.0579539
0.0504446
0.0439095
0.0377102
0.0318772
0.0264517
0.0214303
0.0168114
0.0125983
0.00879578
0.00540891
0.0024433
-9.53973e-05
-0.00220173
-0.00387071
-0.00509792
-0.00587972
-0.00621326
-0.00609654
-0.0055285
-0.00450896
-0.00303866
-0.00111925
0.00124675
0.00405603
0.0073045
0.0109874
0.0150992
0.019634
0.024585
0.0299451
0.0357068
0.0418619
0.0484022
0.0553191
0.0626038
0.070247
0.0782397
0.0865724
0.0952357
0.10422
0.113516
0.123113
0.133004
0.143177
0.153624
0.164336
0.175303
0.186517
0.197968
0.209648
0.221549
0.233662
0.245979
0.258492
0.271195
0.284078
0.297136
0.310361
0.323746
0.337285
0.350971
0.364798
0.37876
0.392852
0.407067
0.421401
0.435847
0.450402
0.465059
0.479815
0.494663
0.5096
0.524621
0.539722
0.554898
0.570144
0.585456
0.60083
0.616261
0.631745
0.647277
0.662853
0.678468
0.694117
0.709795
0.725497
0.741218
0.756952
0.772693
0.788436
0.804174
0.819901
0.835609
0.851292
0.866942
0.882551
0.898111
0.913613
0.929048
0.944406
0.959678
0.974852
0.989918
1.00486
1.01968
1.03435
1.04886
1.0632
1.07736
1.09132
1.10506
1.11857
1.13184
1.14485
1.15757
1.17
1.18212
1.19391
1.20535
1.21642
1.22712
1.23741
1.24728
1.25671
1.2657
1.27421
1.28224
1.28977
1.29679
1.30327
1.30922
1.31462
1.31945
1.32372
1.32741
1.33052
1.33304
1.33498
1.33633
1.33709
1.33728
1.33689
1.33594
1.33442
1.33236
1.32977
1.32664
1.32301
1.31889
1.31427
1.30919
1.30364
1.29763
1.29116
1.28429
1.27705
1.26874
1.25876
0.0712032
0.0615249
0.0534898
0.0465217
0.0399339
0.0337576
0.0280352
0.0227602
0.0179276
0.0135376
0.00959164
0.00609176
0.00304033
0.000439925
-0.00170693
-0.00339801
-0.00463151
-0.00540616
-0.00572134
-0.00557707
-0.00497411
-0.00391395
-0.00239884
-0.000431749
0.00198363
0.00484295
0.00814126
0.011873
0.0160321
0.020612
0.0256054
0.031005
0.0368027
0.0429904
0.0495596
0.0565015
0.0638074
0.071468
0.0794741
0.0878164
0.0964854
0.105472
0.114766
0.124359
0.134241
0.144403
0.154836
0.16553
0.176477
0.187667
0.199093
0.210746
0.222617
0.234698
0.246981
0.259459
0.272124
0.284968
0.297985
0.311168
0.324509
0.338003
0.351643
0.365423
0.379337
0.393379
0.407544
0.421826
0.43622
0.450722
0.465325
0.480025
0.494818
0.509698
0.524662
0.539704
0.554821
0.570007
0.585259
0.600572
0.615941
0.631363
0.646832
0.662345
0.677896
0.693481
0.709094
0.724732
0.740388
0.756057
0.771733
0.787411
0.803085
0.818747
0.834392
0.850013
0.865601
0.881149
0.89665
0.912094
0.927472
0.942776
0.957995
0.97312
0.988138
1.00304
1.01781
1.03245
1.04692
1.06124
1.07537
1.0893
1.10303
1.11653
1.12979
1.1428
1.15553
1.16797
1.1801
1.19191
1.20338
1.21449
1.22522
1.23556
1.24548
1.25497
1.26402
1.2726
1.2807
1.28831
1.2954
1.30197
1.308
1.31348
1.3184
1.32275
1.32652
1.32971
1.33231
1.33431
1.33572
1.33653
1.33675
1.33638
1.33543
1.3339
1.3318
1.32913
1.32592
1.32216
1.31788
1.31307
1.30774
1.30191
1.29558
1.28874
1.28145
1.27375
1.26488
1.25421
0.0749109
0.0646
0.0560554
0.0486647
0.0416953
0.0351795
0.029161
0.0236308
0.0185812
0.0140096
0.00991484
0.0062959
0.00315237
0.000484048
-0.00170924
-0.00342784
-0.00467238
-0.00544385
-0.00574374
-0.00557403
-0.0049373
-0.00383667
-0.00227589
-0.00025928
0.00220829
0.00512142
0.00847425
0.0122604
0.0164731
0.021105
0.0261485
0.0315957
0.0374383
0.0436679
0.0502756
0.0572528
0.0645902
0.0722787
0.0803091
0.0886719
0.0973579
0.106358
0.115662
0.125261
0.135146
0.145307
0.155736
0.166424
0.177361
0.188539
0.19995
0.211585
0.223436
0.235494
0.247753
0.260204
0.27284
0.285654
0.298639
0.311787
0.325093
0.338549
0.35215
0.36589
0.379762
0.393761
0.407882
0.422119
0.436467
0.45092
0.465475
0.480125
0.494867
0.509696
0.524607
0.539596
0.554658
0.569789
0.584985
0.600241
0.615554
0.630918
0.646329
0.661782
0.677274
0.692799
0.708353
0.723931
0.739527
0.755136
0.770753
0.786371
0.801986
0.817591
0.833178
0.848742
0.864275
0.87977
0.895218
0.910612
0.925942
0.9412
0.956376
0.971459
0.98644
1.00131
1.01605
1.03066
1.04511
1.0594
1.07352
1.08745
1.10117
1.11467
1.12794
1.14096
1.15371
1.16617
1.17834
1.19019
1.2017
1.21286
1.22364
1.23404
1.24403
1.2536
1.26272
1.27138
1.27957
1.28727
1.29445
1.30112
1.30725
1.31282
1.31784
1.32228
1.32614
1.32941
1.33209
1.33416
1.33563
1.33649
1.33675
1.3364
1.33544
1.33389
1.33174
1.32901
1.3257
1.32181
1.31736
1.31235
1.30679
1.30068
1.29402
1.28682
1.27912
1.27096
1.26155
1.25021
0.0780528
0.0671322
0.0580944
0.050292
0.0429488
0.0360986
0.0297866
0.0240019
0.0187343
0.0139791
0.00973243
0.00599088
0.00275144
1.13889e-05
-0.00223194
-0.00398125
-0.00523947
-0.00600974
-0.00629556
-0.00610084
-0.00542989
-0.00428749
-0.00267886
-0.000609662
0.00191404
0.00488577
0.00829867
0.0121455
0.0164187
0.0211103
0.0262122
0.0317158
0.0376126
0.0438936
0.0505501
0.0575727
0.0649524
0.0726797
0.0807453
0.0891399
0.0978539
0.106878
0.116203
0.12582
0.135719
0.145891
0.156327
0.167019
0.177957
0.189133
0.200539
0.212166
0.224007
0.236053
0.248296
0.260729
0.273346
0.286137
0.299098
0.31222
0.325498
0.338924
0.352494
0.3662
0.380037
0.394
0.408083
0.42228
0.436587
0.450999
0.46551
0.480116
0.494813
0.509595
0.524458
0.539398
0.55441
0.569491
0.584636
0.59984
0.615099
0.63041
0.645767
0.661166
0.676603
0.692073
0.707572
0.723094
0.738635
0.754189
0.769751
0.785316
0.800877
0.816429
0.831966
0.847479
0.862964
0.878411
0.893814
0.909165
0.924455
0.939675
0.954815
0.969867
0.984819
0.999662
1.01438
1.02897
1.04342
1.0577
1.07182
1.08575
1.09948
1.113
1.12628
1.13933
1.15211
1.16462
1.17683
1.18873
1.2003
1.21152
1.22238
1.23285
1.24292
1.25258
1.26179
1.27056
1.27884
1.28664
1.29394
1.30071
1.30695
1.31263
1.31775
1.3223
1.32626
1.32963
1.33239
1.33454
1.33607
1.33698
1.33728
1.33694
1.33599
1.33442
1.33223
1.32942
1.32601
1.32199
1.31737
1.31216
1.30636
1.29997
1.293
1.28543
1.27733
1.26873
1.2588
1.24683
0.0805873
0.0690785
0.059563
0.0513601
0.0436516
0.0364731
0.0298718
0.0238349
0.0183503
0.0134113
0.00901192
0.00514641
0.00180947
-0.00100394
-0.00329874
-0.00507989
-0.00635242
-0.00712155
-0.00739274
-0.00717173
-0.00646456
-0.00527761
-0.00361757
-0.00149144
0.00109351
0.00412968
0.00760921
0.0115239
0.0158655
0.0206251
0.0257942
0.0313636
0.0373243
0.0436671
0.0503826
0.0574615
0.0648944
0.0726716
0.0807838
0.0892213
0.0979749
0.107035
0.116392
0.126038
0.135962
0.146156
0.15661
0.167317
0.178267
0.189452
0.200863
0.212493
0.224333
0.236375
0.248612
0.261037
0.273642
0.28642
0.299364
0.312468
0.325726
0.33913
0.352675
0.366355
0.380164
0.394097
0.408148
0.422312
0.436584
0.450959
0.465432
0.479999
0.494655
0.509395
0.524215
0.539111
0.554079
0.569113
0.584211
0.599367
0.614578
0.62984
0.645147
0.660496
0.675883
0.691302
0.70675
0.722222
0.737712
0.753216
0.768729
0.784245
0.799758
0.815263
0.830754
0.846223
0.861665
0.877072
0.892437
0.907752
0.923008
0.938198
0.953311
0.96834
0.983272
0.9981
1.01281
1.02739
1.04183
1.05612
1.07025
1.08419
1.09795
1.11149
1.12481
1.1379
1.15072
1.16328
1.17555
1.18752
1.19916
1.21047
1.22141
1.23198
1.24215
1.25191
1.26123
1.27011
1.27851
1.28643
1.29385
1.30074
1.3071
1.31291
1.31815
1.32281
1.32688
1.33035
1.3332
1.33544
1.33704
1.33802
1.33835
1.33804
1.33709
1.3355
1.33326
1.33039
1.32687
1.32272
1.31794
1.31253
1.30649
1.29983
1.29254
1.28462
1.27612
1.2671
1.25667
1.24408
0.0824764
0.0703993
0.0604207
0.0518281
0.0437631
0.0362633
0.0293777
0.0230924
0.0173935
0.0122724
0.00772124
0.00373236
0.000298325
-0.00258803
-0.00493376
-0.00674588
-0.00803146
-0.0087977
-0.00905193
-0.00880168
-0.0080547
-0.00681892
-0.00510249
-0.00291374
-0.000261203
0.00284639
0.0064001
0.0103908
0.0148094
0.0196463
0.0248921
0.0305374
0.0365724
0.0429876
0.0497732
0.0569195
0.0644169