/*--------------------------------*- C++ -*----------------------------------*\
  =========                 |
  \\      /  F ield         | OpenFOAM: The Open Source CFD Toolbox
   \\    /   O peration     | Website:  https://openfoam.org
    \\  /    A nd           | Version:  7
     \\/     M anipulation  |
\*---------------------------------------------------------------------------*/
FoamFile
{
    version     2.0;
    format      ascii;
    class       surfaceScalarField;
    location    "0.35";
    object      phi;
}
// * * * * * * * * * * * * * * * * * * * * * * * * * * * * * * * * * * * * * //

dimensions      [0 3 -1 0 0 0 0];

internalField   nonuniform List<scalar> 
25360
(
1.14457e-10
-1.14179e-10
3.59649e-10
-2.45168e-10
6.04224e-10
-2.44572e-10
7.65055e-10
-1.60834e-10
7.98021e-10
-3.29621e-11
6.81305e-10
1.16718e-10
4.06265e-10
2.75033e-10
-2.77684e-11
4.34024e-10
-6.16657e-10
5.88885e-10
-1.35338e-09
7.36721e-10
-2.22918e-09
8.75792e-10
-3.23427e-09
1.00509e-09
-4.35836e-09
1.12409e-09
-5.59092e-09
1.23256e-09
-6.92143e-09
1.33052e-09
-8.33954e-09
1.4181e-09
-9.83512e-09
1.49558e-09
-1.13984e-08
1.56329e-09
-1.302e-08
1.62161e-09
-1.4691e-08
1.67096e-09
-1.64028e-08
1.7118e-09
-1.81474e-08
1.7446e-09
-1.99172e-08
1.76982e-09
-2.17051e-08
1.78794e-09
-2.35046e-08
1.79944e-09
-2.53094e-08
1.80478e-09
-2.71138e-08
1.80443e-09
-2.89126e-08
1.79883e-09
-3.07011e-08
1.78843e-09
-3.24747e-08
1.77363e-09
-3.42296e-08
1.75486e-09
-3.59621e-08
1.73251e-09
-3.7669e-08
1.70694e-09
-3.93475e-08
1.67852e-09
-4.09951e-08
1.64758e-09
-4.26096e-08
1.61445e-09
-4.4189e-08
1.57942e-09
-4.57318e-08
1.54278e-09
-4.72366e-08
1.50479e-09
-4.87023e-08
1.4657e-09
-5.0128e-08
1.42574e-09
-5.15131e-08
1.38512e-09
-5.28572e-08
1.34404e-09
-5.41599e-08
1.30268e-09
-5.54211e-08
1.26119e-09
-5.66408e-08
1.21973e-09
-5.78192e-08
1.17843e-09
-5.89566e-08
1.13741e-09
-6.00534e-08
1.09677e-09
-6.111e-08
1.05661e-09
-6.2127e-08
1.01701e-09
-6.31051e-08
9.78033e-10
-6.40448e-08
9.39743e-10
-6.4947e-08
9.02187e-10
-6.58124e-08
8.65402e-10
-6.66418e-08
8.2942e-10
-6.74361e-08
7.94259e-10
-6.8196e-08
7.59932e-10
-6.89225e-08
7.26444e-10
-6.96163e-08
6.93793e-10
-7.02782e-08
6.61971e-10
-7.09092e-08
6.30965e-10
-7.15099e-08
6.0075e-10
-7.20812e-08
5.71301e-10
-7.26238e-08
5.42589e-10
-7.31384e-08
5.14579e-10
-7.36256e-08
4.87231e-10
-7.40861e-08
4.60501e-10
-7.45205e-08
4.3434e-10
-7.49292e-08
4.08697e-10
-7.53127e-08
3.83522e-10
-7.56715e-08
3.58759e-10
-7.60058e-08
3.34346e-10
-7.6316e-08
3.1022e-10
-7.66023e-08
2.86316e-10
-7.68649e-08
2.62572e-10
-7.71038e-08
2.38921e-10
-7.73191e-08
2.15294e-10
-7.75108e-08
1.91619e-10
-7.76786e-08
1.67823e-10
-7.78224e-08
1.43832e-10
-7.7942e-08
1.19574e-10
-7.8037e-08
9.49751e-11
-7.81069e-08
6.99623e-11
-7.81514e-08
4.44603e-11
-7.81698e-08
1.83951e-11
-7.81615e-08
-8.30686e-12
-7.81258e-08
-3.57186e-11
-7.80618e-08
-6.3913e-11
-7.79689e-08
-9.29617e-11
-7.78459e-08
-1.22933e-10
-7.7692e-08
-1.53894e-10
-7.75061e-08
-1.85906e-10
-7.72871e-08
-2.19031e-10
-7.70338e-08
-2.53327e-10
-7.67449e-08
-2.88848e-10
-7.64193e-08
-3.25644e-10
-7.60555e-08
-3.63758e-10
-7.56523e-08
-4.03228e-10
-7.52082e-08
-4.44083e-10
-7.47219e-08
-4.8635e-10
-7.41918e-08
-5.30046e-10
-7.36166e-08
-5.75178e-10
-7.29949e-08
-6.21745e-10
-7.23252e-08
-6.69736e-10
-7.1606e-08
-7.19126e-10
-7.08361e-08
-7.69882e-10
-7.00142e-08
-8.21958e-10
-6.91389e-08
-8.75291e-10
-6.82091e-08
-9.29807e-10
-6.72237e-08
-9.85414e-10
-6.61817e-08
-1.04201e-09
-6.50822e-08
-1.09946e-09
-6.39246e-08
-1.15763e-09
-6.27082e-08
-1.21637e-09
-6.14327e-08
-1.27548e-09
-6.0098e-08
-1.33477e-09
-5.87039e-08
-1.39402e-09
-5.72509e-08
-1.45299e-09
-5.57395e-08
-1.51142e-09
-5.41705e-08
-1.56902e-09
-5.2545e-08
-1.6255e-09
-5.08645e-08
-1.68052e-09
-4.91308e-08
-1.73373e-09
-4.7346e-08
-1.78478e-09
-4.55127e-08
-1.83327e-09
-4.36339e-08
-1.87879e-09
-4.1713e-08
-1.92092e-09
-3.97538e-08
-1.95921e-09
-3.77606e-08
-1.99321e-09
-3.57381e-08
-2.02245e-09
-3.36917e-08
-2.04642e-09
-3.16271e-08
-2.06465e-09
-2.95504e-08
-2.07662e-09
-2.74686e-08
-2.08181e-09
-2.53889e-08
-2.07973e-09
-2.33191e-08
-2.06984e-09
-2.12674e-08
-2.05164e-09
-1.92428e-08
-2.02463e-09
-1.72545e-08
-1.98829e-09
-1.53123e-08
-1.94217e-09
-1.34265e-08
-1.88578e-09
-1.16078e-08
-1.81871e-09
-9.86726e-09
-1.74056e-09
-8.21627e-09
-1.65099e-09
-6.66657e-09
-1.5497e-09
-5.23007e-09
-1.4365e-09
-3.91876e-09
-1.31131e-09
-2.74455e-09
-1.1742e-09
-1.71906e-09
-1.02549e-09
-8.53259e-10
-8.65804e-10
-1.56978e-10
-6.96287e-10
3.61865e-10
-5.1885e-10
6.98525e-10
-3.36657e-10
8.53495e-10
-1.54959e-10
8.36011e-10
1.74954e-11
6.6989e-10
1.66118e-10
4.03881e-10
2.6598e-10
1.30779e-10
2.73047e-10
1.30735e-10
2.45531e-10
-3.59684e-10
6.34104e-10
-6.33727e-10
9.50099e-10
-5.60588e-10
1.04683e-09
-2.57601e-10
8.28474e-10
1.85378e-10
2.38545e-10
7.06653e-10
-7.51346e-10
1.26493e-09
-2.15023e-09
1.8329e-09
-3.95397e-09
2.39262e-09
-6.14959e-09
2.93233e-09
-8.71822e-09
3.44441e-09
-1.16372e-08
3.92402e-09
-1.48813e-08
4.36825e-09
-1.84243e-08
4.77551e-09
-2.22389e-08
5.14518e-09
-2.62981e-08
5.47732e-09
-3.05751e-08
5.77249e-09
-3.50434e-08
6.03161e-09
-3.96777e-08
6.25587e-09
-4.44533e-08
6.44664e-09
-4.9347e-08
6.60544e-09
-5.43362e-08
6.73386e-09
-5.94e-08
6.83359e-09
-6.45184e-08
6.90632e-09
-6.96727e-08
6.95376e-09
-7.48456e-08
6.97764e-09
-8.00208e-08
6.97964e-09
-8.51834e-08
6.96144e-09
-9.03196e-08
6.92467e-09
-9.54169e-08
6.87091e-09
-1.00464e-07
6.8017e-09
-1.0545e-07
6.71851e-09
-1.10366e-07
6.62276e-09
-1.15203e-07
6.51581e-09
-1.19954e-07
6.39895e-09
-1.24613e-07
6.2734e-09
-1.29174e-07
6.14032e-09
-1.33632e-07
6.0008e-09
-1.37983e-07
5.85585e-09
-1.42224e-07
5.70643e-09
-1.46352e-07
5.55344e-09
-1.50364e-07
5.39768e-09
-1.5426e-07
5.23992e-09
-1.58038e-07
5.08085e-09
-1.61698e-07
4.92111e-09
-1.6524e-07
4.76128e-09
-1.68663e-07
4.60188e-09
-1.71969e-07
4.44338e-09
-1.75159e-07
4.28619e-09
-1.78233e-07
4.13068e-09
-1.81193e-07
3.97718e-09
-1.84041e-07
3.82596e-09
-1.86778e-07
3.67724e-09
-1.89407e-07
3.53123e-09
-1.9193e-07
3.38809e-09
-1.94348e-07
3.24792e-09
-1.96665e-07
3.11082e-09
-1.98882e-07
2.97685e-09
-2.01002e-07
2.84603e-09
-2.03026e-07
2.71836e-09
-2.04958e-07
2.59381e-09
-2.06799e-07
2.47233e-09
-2.08552e-07
2.35384e-09
-2.10219e-07
2.23826e-09
-2.11802e-07
2.12546e-09
-2.13303e-07
2.01531e-09
-2.14723e-07
1.90768e-09
-2.16065e-07
1.80238e-09
-2.1733e-07
1.69925e-09
-2.1852e-07
1.59808e-09
-2.19635e-07
1.49868e-09
-2.20677e-07
1.40083e-09
-2.21647e-07
1.3043e-09
-2.22545e-07
1.20887e-09
-2.23373e-07
1.11427e-09
-2.24131e-07
1.02027e-09
-2.24819e-07
9.26603e-10
-2.25436e-07
8.33004e-10
-2.25984e-07
7.39206e-10
-2.26461e-07
6.44934e-10
-2.26867e-07
5.49907e-10
-2.27201e-07
4.53844e-10
-2.27463e-07
3.56465e-10
-2.2765e-07
2.57486e-10
-2.27763e-07
1.56623e-10
-2.27798e-07
5.35925e-11
-2.27754e-07
-5.18868e-11
-2.2763e-07
-1.60092e-10
-2.27422e-07
-2.71297e-10
-2.2713e-07
-3.85768e-10
-2.26749e-07
-5.03765e-10
-2.26277e-07
-6.25541e-10
-2.25712e-07
-7.51335e-10
-2.25049e-07
-8.81377e-10
-2.24287e-07
-1.01588e-09
-2.23421e-07
-1.15505e-09
-2.22447e-07
-1.29905e-09
-2.21363e-07
-1.44806e-09
-2.20164e-07
-1.60221e-09
-2.18846e-07
-1.76162e-09
-2.17406e-07
-1.92635e-09
-2.1584e-07
-2.09648e-09
-2.14143e-07
-2.27202e-09
-2.12312e-07
-2.45296e-09
-2.10342e-07
-2.63923e-09
-2.08231e-07
-2.83074e-09
-2.05973e-07
-3.02735e-09
-2.03566e-07
-3.22886e-09
-2.01007e-07
-3.43503e-09
-1.98291e-07
-3.64556e-09
-1.95416e-07
-3.86008e-09
-1.9238e-07
-4.07818e-09
-1.8918e-07
-4.29936e-09
-1.85815e-07
-4.52307e-09
-1.82282e-07
-4.7487e-09
-1.78582e-07
-4.97553e-09
-1.74714e-07
-5.20279e-09
-1.70679e-07
-5.42964e-09
-1.66477e-07
-5.65515e-09
-1.6211e-07
-5.8783e-09
-1.57581e-07
-6.09802e-09
-1.52893e-07
-6.31312e-09
-1.48051e-07
-6.52237e-09
-1.43061e-07
-6.72443e-09
-1.37927e-07
-6.9179e-09
-1.32659e-07
-7.10131e-09
-1.27265e-07
-7.2731e-09
-1.21754e-07
-7.43166e-09
-1.16138e-07
-7.5753e-09
-1.10429e-07
-7.7023e-09
-1.04641e-07
-7.81086e-09
-9.8788e-08
-7.89916e-09
-9.28873e-08
-7.96534e-09
-8.69565e-08
-8.0075e-09
-8.10145e-08
-8.02375e-09
-7.50821e-08
-8.01217e-09
-6.9181e-08
-7.97088e-09
-6.33347e-08
-7.89799e-09
-5.75676e-08
-7.79168e-09
-5.19058e-08
-7.65018e-09
-4.63761e-08
-7.4718e-09
-4.1007e-08
-7.25496e-09
-3.58275e-08
-6.99821e-09
-3.08677e-08
-6.70031e-09
-2.61585e-08
-6.36024e-09
-2.17309e-08
-5.97729e-09
-1.76162e-08
-5.55115e-09
-1.38455e-08
-5.08207e-09
-1.04487e-08
-4.57102e-09
-7.45419e-09
-4.01997e-09
-4.88762e-09
-3.43237e-09
-2.77022e-09
-2.81367e-09
-1.11672e-09
-2.17236e-09
6.79978e-11
-1.52139e-09
7.93543e-10
-8.80526e-10
1.09098e-09
-2.7995e-10
1.02272e-09
2.34418e-10
6.95346e-10
5.93439e-10
2.73174e-10
6.95324e-10
4.03872e-10
2.45866e-10
-6.05545e-10
5.63583e-10
-9.51447e-10
6.97966e-10
-6.94972e-10
4.75021e-10
-3.46686e-11
-2.24934e-10
8.85315e-10
-1.47777e-09
1.95948e-09
-3.32538e-09
3.11254e-09
-5.78431e-09
4.29182e-09
-8.85258e-09
5.46087e-09
-1.25148e-08
6.59459e-09
-1.67463e-08
7.67589e-09
-2.15157e-08
8.69343e-09
-2.67874e-08
9.6399e-09
-3.25228e-08
1.0511e-08
-3.86822e-08
1.13045e-08
-4.52246e-08
1.20198e-08
-5.21097e-08
1.26575e-08
-5.92972e-08
1.32191e-08
-6.67481e-08
1.37067e-08
-7.44244e-08
1.41229e-08
-8.22896e-08
1.44707e-08
-9.03089e-08
1.47532e-08
-9.84492e-08
1.49738e-08
-1.06679e-07
1.51362e-08
-1.14969e-07
1.52438e-08
-1.23292e-07
1.53001e-08
-1.31621e-07
1.53089e-08
-1.39933e-07
1.52737e-08
-1.48206e-07
1.51978e-08
-1.5642e-07
1.50847e-08
-1.64556e-07
1.49377e-08
-1.72597e-07
1.47599e-08
-1.80529e-07
1.45545e-08
-1.88337e-07
1.43243e-08
-1.96011e-07
1.40721e-08
-2.03538e-07
1.38007e-08
-2.1091e-07
1.35124e-08
-2.18119e-07
1.32097e-08
-2.25158e-07
1.28948e-08
-2.32021e-07
1.25699e-08
-2.38705e-07
1.22367e-08
-2.45204e-07
1.18972e-08
-2.51517e-07
1.1553e-08
-2.57642e-07
1.12056e-08
-2.63577e-07
1.08564e-08
-2.69323e-07
1.05068e-08
-2.74879e-07
1.01578e-08
-2.80246e-07
9.81047e-09
-2.85425e-07
9.46579e-09
-2.90419e-07
9.12454e-09
-2.95229e-07
8.78744e-09
-2.99859e-07
8.45511e-09
-3.04309e-07
8.12807e-09
-3.08585e-07
7.80676e-09
-3.12688e-07
7.49153e-09
-3.16623e-07
7.18265e-09
-3.20393e-07
6.88033e-09
-3.24001e-07
6.58469e-09
-3.2745e-07
6.29582e-09
-3.30746e-07
6.0137e-09
-3.3389e-07
5.7383e-09
-3.36887e-07
5.4695e-09
-3.39741e-07
5.20716e-09
-3.42453e-07
4.95108e-09
-3.45029e-07
4.701e-09
-3.4747e-07
4.45665e-09
-3.4978e-07
4.21772e-09
-3.51962e-07
3.98383e-09
-3.54017e-07
3.75462e-09
-3.55949e-07
3.52966e-09
-3.57759e-07
3.30851e-09
-3.59448e-07
3.0907e-09
-3.6102e-07
2.87574e-09
-3.62474e-07
2.66313e-09
-3.63812e-07
2.45233e-09
-3.65035e-07
2.24279e-09
-3.66142e-07
2.03396e-09
-3.67134e-07
1.82525e-09
-3.68011e-07
1.61609e-09
-3.68772e-07
1.40587e-09
-3.69416e-07
1.19399e-09
-3.69942e-07
9.79842e-10
-3.70349e-07
7.6281e-10
-3.70633e-07
5.4228e-10
-3.70794e-07
3.17637e-10
-3.70829e-07
8.8267e-11
-3.70735e-07
-1.46439e-10
-3.70508e-07
-3.87081e-10
-3.70145e-07
-6.34249e-10
-3.69642e-07
-8.88519e-10
-3.68995e-07
-1.15045e-09
-3.682e-07
-1.42058e-09
-3.67252e-07
-1.69944e-09
-3.66146e-07
-1.9875e-09
-3.64877e-07
-2.28523e-09
-3.63439e-07
-2.59305e-09
-3.61826e-07
-2.91135e-09
-3.60034e-07
-3.24046e-09
-3.58055e-07
-3.58066e-09
-3.55885e-07
-3.9322e-09
-3.53516e-07
-4.29523e-09
-3.50943e-07
-4.66986e-09
-3.48158e-07
-5.05612e-09
-3.45157e-07
-5.45396e-09
-3.41933e-07
-5.86324e-09
-3.3848e-07
-6.28373e-09
-3.34793e-07
-6.71509e-09
-3.30865e-07
-7.15688e-09
-3.26691e-07
-7.60856e-09
-3.22267e-07
-8.06945e-09
-3.17589e-07
-8.53875e-09
-3.12651e-07
-9.01551e-09
-3.07452e-07
-9.49867e-09
-3.01988e-07
-9.98699e-09
-2.96258e-07
-1.04791e-08
-2.9026e-07
-1.09735e-08
-2.83994e-07
-1.14684e-08
-2.77462e-07
-1.19621e-08
-2.70664e-07
-1.24524e-08
-2.63605e-07
-1.29372e-08
-2.56289e-07
-1.34141e-08
-2.48722e-07
-1.38805e-08
-2.40911e-07
-1.43338e-08
-2.32864e-07
-1.4771e-08
-2.24593e-07
-1.51891e-08
-2.16109e-07
-1.5585e-08
-2.07427e-07
-1.59552e-08
-1.98563e-07
-1.62963e-08
-1.89533e-07
-1.66046e-08
-1.80359e-07
-1.68765e-08
-1.71062e-07
-1.7108e-08
-1.61666e-07
-1.72953e-08
-1.52197e-07
-1.74344e-08
-1.42683e-07
-1.75213e-08
-1.33155e-07
-1.75518e-08
-1.23645e-07
-1.7522e-08
-1.14188e-07
-1.74279e-08
-1.0482e-07
-1.72656e-08
-9.55806e-08
-1.70313e-08
-8.65096e-08
-1.67212e-08
-7.76493e-08
-1.63321e-08
-6.90436e-08
-1.58607e-08
-6.07376e-08
-1.53042e-08
-5.27775e-08
-1.46604e-08
-4.52102e-08
-1.39275e-08
-3.80829e-08
-1.31046e-08
-3.14425e-08
-1.21915e-08
-2.53348e-08
-1.11897e-08
-1.98037e-08
-1.01022e-08
-1.48895e-08
-8.93415e-09
-1.06277e-08
-7.6942e-09
-7.04622e-09
-6.39518e-09
-4.16241e-09
-5.05615e-09
-1.97886e-09
-3.70493e-09
-4.77533e-10
-2.38186e-09
3.87778e-10
-1.1453e-09
7.0122e-10
-7.90827e-11
5.96086e-10
6.9854e-10
2.66938e-10
1.02453e-09
6.70796e-10
1.63808e-10
-7.69368e-10
2.64852e-10
-1.05252e-09
4.44071e-11
-4.74523e-10
-6.77923e-10
6.87665e-10
-2.0289e-09
2.23629e-09
-4.09175e-09
4.02232e-09
-6.91456e-09
5.93534e-09
-1.05179e-08
7.89512e-09
-1.49009e-08
9.84394e-09
-2.0047e-08
1.17406e-08
-2.59273e-08
1.35562e-08
-3.25043e-08
1.52705e-08
-3.97348e-08
1.68703e-08
-4.7571e-08
1.83472e-08
-5.59628e-08
1.96963e-08
-6.48587e-08
2.09157e-08
-7.42069e-08
2.20057e-08
-8.39557e-08
2.2968e-08
-9.40545e-08
2.38055e-08
-1.04454e-07
2.45223e-08
-1.15106e-07
2.51229e-08
-1.25966e-07
2.56125e-08
-1.36988e-07
2.59965e-08
-1.48133e-07
2.62808e-08
-1.5936e-07
2.64711e-08
-1.70633e-07
2.65734e-08
-1.81918e-07
2.65938e-08
-1.93183e-07
2.65382e-08
-2.04397e-07
2.64123e-08
-2.15535e-07
2.62221e-08
-2.2657e-07
2.5973e-08
-2.37481e-07
2.56705e-08
-2.48246e-07
2.53198e-08
-2.58848e-07
2.49259e-08
-2.69269e-07
2.44936e-08
-2.79496e-07
2.40275e-08
-2.89515e-07
2.35318e-08
-2.99316e-07
2.30108e-08
-3.0889e-07
2.24681e-08
-3.18227e-07
2.19076e-08
-3.27323e-07
2.13324e-08
-3.36171e-07
2.07457e-08
-3.44769e-07
2.01504e-08
-3.53113e-07
1.95492e-08
-3.61201e-07
1.89445e-08
-3.69032e-07
1.83385e-08
-3.76608e-07
1.77333e-08
-3.83928e-07
1.71306e-08
-3.90994e-07
1.65321e-08
-3.97809e-07
1.59392e-08
-4.04375e-07
1.53531e-08
-4.10694e-07
1.4775e-08
-4.16772e-07
1.42058e-08
-4.22612e-07
1.36462e-08
-4.28217e-07
1.30969e-08
-4.33593e-07
1.25583e-08
-4.38743e-07
1.20309e-08
-4.43673e-07
1.15149e-08
-4.48388e-07
1.10103e-08
-4.52891e-07
1.05173e-08
-4.57189e-07
1.00357e-08
-4.61285e-07
9.56547e-09
-4.65184e-07
9.10623e-09
-4.68891e-07
8.6577e-09
-4.72409e-07
8.21945e-09
-4.75743e-07
7.79101e-09
-4.78898e-07
7.37183e-09
-4.81875e-07
6.96131e-09
-4.84679e-07
6.55878e-09
-4.87313e-07
6.16355e-09
-4.89779e-07
5.77484e-09
-4.92081e-07
5.39185e-09
-4.94219e-07
5.01373e-09
-4.96195e-07
4.63962e-09
-4.98011e-07
4.2686e-09
-4.99668e-07
3.89972e-09
-5.01166e-07
3.53203e-09
-5.02506e-07
3.16452e-09
-5.03686e-07
2.79619e-09
-5.04706e-07
2.42602e-09
-5.05565e-07
2.05296e-09
-5.06261e-07
1.67596e-09
-5.06792e-07
1.29398e-09
-5.07156e-07
9.05935e-10
-5.07349e-07
5.10786e-10
-5.07368e-07
1.07477e-10
-5.07209e-07
-3.05035e-10
-5.06869e-07
-7.2778e-10
-5.06341e-07
-1.16177e-09
-5.05622e-07
-1.60799e-09
-5.04705e-07
-2.06739e-09
-5.03585e-07
-2.5409e-09
-5.02255e-07
-3.02941e-09
-5.00708e-07
-3.53373e-09
-4.98939e-07
-4.05466e-09
-4.96939e-07
-4.59289e-09
-4.94701e-07
-5.14909e-09
-4.92218e-07
-5.72381e-09
-4.89481e-07
-6.31753e-09
-4.86483e-07
-6.93062e-09
-4.83215e-07
-7.56337e-09
-4.79668e-07
-8.21592e-09
-4.75836e-07
-8.8883e-09
-4.7171e-07
-9.5804e-09
-4.67281e-07
-1.0292e-08
-4.62542e-07
-1.10225e-08
-4.57486e-07
-1.17716e-08
-4.52104e-07
-1.25382e-08
-4.46391e-07
-1.33216e-08
-4.4034e-07
-1.41204e-08
-4.33946e-07
-1.49333e-08
-4.27203e-07
-1.57587e-08
-4.20107e-07
-1.65945e-08
-4.12655e-07
-1.74389e-08
-4.04845e-07
-1.82892e-08
-3.96675e-07
-1.91429e-08
-3.88147e-07
-1.99971e-08
-3.79261e-07
-2.08484e-08
-3.70019e-07
-2.16935e-08
-3.60428e-07
-2.25284e-08
-3.50493e-07
-2.33491e-08
-3.40222e-07
-2.41513e-08
-3.29626e-07
-2.49301e-08
-3.18716e-07
-2.56808e-08
-3.07507e-07
-2.63981e-08
-2.96016e-07
-2.70764e-08
-2.84261e-07
-2.771e-08
-2.72264e-07
-2.8293e-08
-2.6005e-07
-2.88192e-08
-2.47644e-07
-2.92822e-08
-2.35076e-07
-2.96755e-08
-2.22379e-07
-2.99924e-08
-2.09588e-07
-3.02262e-08
-1.96739e-07
-3.037e-08
-1.83874e-07
-3.0417e-08
-1.71035e-07
-3.03606e-08
-1.58269e-07
-3.01939e-08
-1.45624e-07
-2.99104e-08
-1.33152e-07
-2.9504e-08
-1.20904e-07
-2.89686e-08
-1.08938e-07
-2.82987e-08
-9.73092e-08
-2.74893e-08
-8.60773e-08
-2.65361e-08
-7.53021e-08
-2.54357e-08
-6.50438e-08
-2.41858e-08
-5.53629e-08
-2.27855e-08
-4.63189e-08
-2.12356e-08
-3.79692e-08
-1.95394e-08
-3.03682e-08
-1.77032e-08
-2.35652e-08
-1.57371e-08
-1.76027e-08
-1.36567e-08
-1.2513e-08
-1.14848e-08
-8.31528e-09
-9.25391e-09
-5.01048e-09
-7.00971e-09
-2.57603e-09
-4.81628e-09
-9.58666e-10
-2.76265e-09
-6.59812e-11
-9.71783e-10
2.42965e-10
3.8955e-10
1.6902e-10
1.09849e-09
8.39815e-10
3.77859e-11
-8.07157e-10
-1.74099e-10
-8.4066e-10
-8.70452e-10
2.21822e-10
-2.22136e-09
2.03858e-09
-4.34863e-09
4.36355e-09
-7.33379e-09
7.00747e-09
-1.12248e-08
9.82634e-09
-1.60422e-08
1.27125e-08
-2.17845e-08
1.55862e-08
-2.84329e-08
1.8389e-08
-3.59552e-08
2.10785e-08
-4.43092e-08
2.36245e-08
-5.34451e-08
2.60063e-08
-6.33082e-08
2.82103e-08
-7.38402e-08
3.02283e-08
-8.49808e-08
3.20563e-08
-9.66687e-08
3.36937e-08
-1.08843e-07
3.51422e-08
-1.21443e-07
3.64055e-08
-1.3441e-07
3.74889e-08
-1.47685e-07
3.83988e-08
-1.61215e-07
3.91423e-08
-1.74946e-07
3.97273e-08
-1.88827e-07
4.01621e-08
-2.02811e-07
4.04552e-08
-2.16853e-07
4.06154e-08
-2.30911e-07
4.06515e-08
-2.44945e-07
4.05724e-08
-2.5892e-07
4.03867e-08
-2.72801e-07
4.01029e-08
-2.86557e-07
3.97296e-08
-3.00161e-07
3.92746e-08
-3.13587e-07
3.8746e-08
-3.26813e-07
3.81512e-08
-3.39817e-07
3.74976e-08
-3.52581e-07
3.67919e-08
-3.6509e-07
3.60408e-08
-3.7733e-07
3.52504e-08
-3.89288e-07
3.44266e-08
-4.00956e-07
3.35748e-08
-4.12324e-07
3.27003e-08
-4.23385e-07
3.18076e-08
-4.34136e-07
3.09013e-08
-4.44572e-07
2.99853e-08
-4.54692e-07
2.90635e-08
-4.64492e-07
2.81393e-08
-4.73975e-07
2.72156e-08
-4.83139e-07
2.62954e-08
-4.91988e-07
2.5381e-08
-5.00524e-07
2.44747e-08
-5.08749e-07
2.35784e-08
-5.16668e-07
2.26939e-08
-5.24285e-07
2.18224e-08
-5.31604e-07
2.09653e-08
-5.3863e-07
2.01235e-08
-5.4537e-07
1.92978e-08
-5.51828e-07
1.84887e-08
-5.5801e-07
1.76967e-08
-5.63921e-07
1.6922e-08
-5.69569e-07
1.61646e-08
-5.74957e-07
1.54244e-08
-5.80093e-07
1.47012e-08
-5.84981e-07
1.39946e-08
-5.89628e-07
1.33042e-08
-5.94038e-07
1.26293e-08
-5.98216e-07
1.19691e-08
-6.02167e-07
1.1323e-08
-6.05896e-07
1.06898e-08
-6.09406e-07
1.00688e-08
-6.12701e-07
9.45876e-09
-6.15785e-07
8.85856e-09
-6.1866e-07
8.26698e-09
-6.21329e-07
7.68276e-09
-6.23794e-07
7.10456e-09
-6.26056e-07
6.531e-09
-6.28117e-07
5.96065e-09
-6.29977e-07
5.39206e-09
-6.31636e-07
4.82372e-09
-6.33094e-07
4.25409e-09
-6.3435e-07
3.68163e-09
-6.35401e-07
3.10477e-09
-6.36247e-07
2.5219e-09
-6.36885e-07
1.93143e-09
-6.37311e-07
1.33177e-09
-6.37521e-07
7.21304e-10
-6.37512e-07
9.84522e-11
-6.37279e-07
-5.38363e-10
-6.36816e-07
-1.19069e-09
-6.36118e-07
-1.86007e-09
-6.35178e-07
-2.54796e-09
-6.33989e-07
-3.25583e-09
-6.32545e-07
-3.98505e-09
-6.30838e-07
-4.73694e-09
-6.28859e-07
-5.51275e-09
-6.266e-07
-6.31364e-09
-6.24052e-07
-7.14068e-09
-6.21206e-07
-7.99483e-09
-6.18053e-07
-8.87691e-09
-6.14583e-07
-9.78762e-09
-6.10786e-07
-1.07275e-08
-6.06652e-07
-1.1697e-08
-6.02172e-07
-1.26962e-08
-5.97335e-07
-1.37253e-08
-5.92132e-07
-1.47839e-08
-5.86552e-07
-1.58717e-08
-5.80586e-07
-1.6988e-08
-5.74226e-07
-1.81318e-08
-5.67462e-07
-1.93019e-08
-5.60287e-07
-2.04968e-08
-5.52693e-07
-2.17148e-08
-5.44673e-07
-2.29535e-08
-5.36221e-07
-2.42105e-08
-5.27333e-07
-2.54829e-08
-5.18004e-07
-2.67674e-08
-5.08233e-07
-2.80605e-08
-4.98018e-07
-2.93579e-08
-4.8736e-07
-3.06553e-08
-4.7626e-07
-3.19478e-08
-4.64724e-07
-3.323e-08
-4.52756e-07
-3.44961e-08
-4.40365e-07
-3.57399e-08
-4.27562e-07
-3.69548e-08
-4.14358e-07
-3.81338e-08
-4.00769e-07
-3.92693e-08
-3.86814e-07
-4.03534e-08
-3.72513e-07
-4.13778e-08
-3.57889e-07
-4.2334e-08
-3.42969e-07
-4.32129e-08
-3.27783e-07
-4.40052e-08
-3.12364e-07
-4.47013e-08
-2.96748e-07
-4.52915e-08
-2.80975e-07
-4.57658e-08
-2.65087e-07
-4.61141e-08
-2.4913e-07
-4.63262e-08
-2.33155e-07
-4.63921e-08
-2.17214e-07
-4.63017e-08
-2.01363e-07
-4.60452e-08
-1.8566e-07
-4.5613e-08
-1.70168e-07
-4.4996e-08
-1.54951e-07
-4.41856e-08
-1.40076e-07
-4.31738e-08
-1.25611e-07
-4.19538e-08
-1.11628e-07
-4.05197e-08
-9.81966e-08
-3.8867e-08
-8.53893e-08
-3.69931e-08
-7.32773e-08
-3.48975e-08
-6.19302e-08
-3.25827e-08
-5.14149e-08
-3.00546e-08
-4.17943e-08
-2.73238e-08
-3.31246e-08
-2.44067e-08
-2.54539e-08
-2.13275e-08
-1.88183e-08
-1.81204e-08
-1.32392e-08
-1.48331e-08
-8.71826e-09
-1.15307e-08
-5.23278e-09
-8.30176e-09
-2.72949e-09
-5.26592e-09
-1.11793e-09
-2.58334e-09
-2.63093e-10
-4.6531e-10
2.32715e-11
8.12122e-10
8.63088e-10
-1.10578e-10
-6.9657e-10
-6.93966e-10
-2.57284e-10
-1.94601e-09
1.47385e-09
-4.01452e-09
4.10709e-09
-7.00733e-09
7.35636e-09
-1.09972e-08
1.09973e-08
-1.60266e-08
1.48557e-08
-2.21122e-08
1.87981e-08
-2.92494e-08
2.27234e-08
-3.74161e-08
2.65557e-08
-4.65762e-08
3.02386e-08
-5.6683e-08
3.37313e-08
-6.76814e-08
3.70047e-08
-7.95106e-08
4.00394e-08
-9.21054e-08
4.28231e-08
-1.05398e-07
4.53491e-08
-1.1932e-07
4.76155e-08
-1.33802e-07
4.96238e-08
-1.48775e-07
5.13782e-08
-1.64171e-07
5.28852e-08
-1.79925e-07
5.41529e-08
-1.95973e-07
5.51907e-08
-2.12255e-07
5.60089e-08
-2.28711e-07
5.66186e-08
-2.45288e-07
5.70314e-08
-2.61931e-07
5.72591e-08
-2.78594e-07
5.73137e-08
-2.95228e-07
5.72072e-08
-3.11793e-07
5.69516e-08
-3.28249e-07
5.65586e-08
-3.44559e-07
5.60398e-08
-3.60691e-07
5.54065e-08
-3.76614e-07
5.46694e-08
-3.92302e-07
5.38391e-08
-4.0773e-07
5.29257e-08
-4.22877e-07
5.19387e-08
-4.37724e-07
5.08873e-08
-4.52253e-07
4.97802e-08
-4.66452e-07
4.86255e-08
-4.80308e-07
4.74308e-08
-4.93811e-07
4.62035e-08
-5.06954e-07
4.495e-08
-5.19729e-07
4.36768e-08
-5.32133e-07
4.23893e-08
-5.44163e-07
4.1093e-08
-5.55816e-07
3.97926e-08
-5.67093e-07
3.84924e-08
-5.77994e-07
3.71964e-08
-5.88521e-07
3.59081e-08
-5.98677e-07
3.46307e-08
-6.08465e-07
3.33668e-08
-6.1789e-07
3.21188e-08
-6.26957e-07
3.08888e-08
-6.3567e-07
2.96785e-08
-6.44036e-07
2.84893e-08
-6.5206e-07
2.73223e-08
-6.5975e-07
2.61784e-08
-6.67111e-07
2.5058e-08
-6.74151e-07
2.39616e-08
-6.80876e-07
2.28893e-08
-6.87292e-07
2.18409e-08
-6.93407e-07
2.08161e-08
-6.99227e-07
1.98144e-08
-7.04757e-07
1.88351e-08
-7.10006e-07
1.78775e-08
-7.14977e-07
1.69404e-08
-7.19677e-07
1.60228e-08
-7.2411e-07
1.51233e-08
-7.28282e-07
1.42407e-08
-7.32197e-07
1.33734e-08
-7.35858e-07
1.25198e-08
-7.39269e-07
1.16782e-08
-7.42433e-07
1.08469e-08
-7.45353e-07
1.00239e-08
-7.48029e-07
9.20735e-09
-7.50464e-07
8.39527e-09
-7.52657e-07
7.58559e-09
-7.5461e-07
6.77622e-09
-7.56321e-07
5.96502e-09
-7.57789e-07
5.14983e-09
-7.59012e-07
4.32842e-09
-7.59989e-07
3.4986e-09
-7.60716e-07
2.65813e-09
-7.61189e-07
1.80477e-09
-7.61404e-07
9.36293e-10
-7.61356e-07
5.04808e-11
-7.61039e-07
-8.5486e-10
-7.60448e-07
-1.78189e-09
-7.59576e-07
-2.73273e-09
-7.58414e-07
-3.70946e-09
-7.56956e-07
-4.71405e-09
-7.55192e-07
-5.74845e-09
-7.53115e-07
-6.81448e-09
-7.50714e-07
-7.91386e-09
-7.47979e-07
-9.04819e-09
-7.44901e-07
-1.02189e-08
-7.41468e-07
-1.14274e-08
-7.3767e-07
-1.26748e-08
-7.33496e-07
-1.3962e-08
-7.28934e-07
-1.52897e-08
-7.23972e-07
-1.66586e-08
-7.186e-07
-1.80687e-08
-7.12805e-07
-1.95201e-08
-7.06576e-07
-2.10126e-08
-6.99903e-07
-2.25453e-08
-6.92773e-07
-2.41175e-08
-6.85177e-07
-2.57276e-08
-6.77105e-07
-2.7374e-08
-6.68547e-07
-2.90546e-08
-6.59496e-07
-3.07666e-08
-6.49942e-07
-3.25071e-08
-6.3988e-07
-3.42724e-08
-6.29304e-07
-3.60586e-08
-6.18211e-07
-3.7861e-08
-6.06597e-07
-3.96745e-08
-5.94461e-07
-4.14934e-08
-5.81805e-07
-4.33113e-08
-5.68632e-07
-4.51215e-08
-5.54945e-07
-4.69165e-08
-5.40753e-07
-4.86881e-08
-5.26065e-07
-5.04278e-08
-5.10894e-07
-5.21262e-08
-4.95254e-07
-5.37735e-08
-4.79164e-07
-5.53592e-08
-4.62645e-07
-5.68723e-08
-4.45722e-07
-5.83013e-08
-4.28421e-07
-5.96343e-08
-4.10776e-07
-6.08586e-08
-3.92819e-07
-6.19614e-08
-3.74591e-07
-6.29295e-08
-3.56133e-07
-6.37494e-08
-3.37492e-07
-6.44071e-08
-3.18717e-07
-6.4889e-08
-2.99862e-07
-6.51809e-08
-2.80985e-07
-6.52691e-08
-2.62147e-07
-6.51399e-08
-2.43413e-07
-6.47797e-08
-2.2485e-07
-6.41758e-08
-2.0653e-07
-6.33158e-08
-1.88527e-07
-6.21882e-08
-1.70919e-07
-6.07826e-08
-1.53782e-07
-5.90901e-08
-1.37199e-07
-5.71032e-08
-1.21249e-07
-5.48165e-08
-1.06015e-07
-5.22275e-08
-9.15758e-08
-4.93365e-08
-7.80105e-08
-4.61481e-08
-6.53937e-08
-4.26714e-08
-5.37951e-08
-3.89224e-08
-4.32773e-08
-3.49245e-08
-3.38932e-08
-3.07115e-08
-2.56835e-08
-2.63301e-08
-1.86729e-08
-2.18437e-08
-1.28667e-08
-1.73369e-08
-8.24611e-09
-1.29223e-08
-4.76406e-09
-8.74797e-09
-2.33988e-09
-5.0075e-09
-8.54614e-10
-1.95058e-09
-1.45838e-10
1.03336e-10
7.17252e-10
-2.68843e-10
-4.27723e-10
-1.25597e-09
7.29845e-10
-3.11211e-09
3.32997e-09
-5.95555e-09
6.95052e-09
-9.87372e-09
1.12745e-08
-1.49253e-08
1.60489e-08
-2.11427e-08
2.10731e-08
-2.85354e-08
2.61909e-08
-3.70932e-08
3.12811e-08
-4.67889e-08
3.62514e-08
-5.75819e-08
4.10316e-08
-6.94206e-08
4.55699e-08
-8.22448e-08
4.9829e-08
-9.59881e-08
5.37827e-08
-1.10579e-07
5.74144e-08
-1.25945e-07
6.07144e-08
-1.42008e-07
6.36792e-08
-1.58694e-07
6.63096e-08
-1.75926e-07
6.86104e-08
-1.9363e-07
7.0589e-08
-2.11732e-07
7.22553e-08
-2.30163e-07
7.3621e-08
-2.48853e-07
7.4699e-08
-2.67738e-07
7.55034e-08
-2.86755e-07
7.6049e-08
-3.05847e-07
7.63508e-08
-3.24958e-07
7.64244e-08
-3.44036e-07
7.62853e-08
-3.63033e-07
7.5949e-08
-3.81905e-07
7.54309e-08
-4.00612e-07
7.47461e-08
-4.19114e-07
7.39092e-08
-4.3738e-07
7.29345e-08
-4.55376e-07
7.18357e-08
-4.73077e-07
7.06262e-08
-4.90457e-07
6.93185e-08
-5.07494e-07
6.79248e-08
-5.2417e-07
6.64564e-08
-5.40469e-07
6.49242e-08
-5.56376e-07
6.33383e-08
-5.71881e-07
6.17081e-08
-5.86974e-07
6.00427e-08
-6.01647e-07
5.83502e-08
-6.15896e-07
5.66381e-08
-6.29716e-07
5.49136e-08
-6.43107e-07
5.31828e-08
-6.56066e-07
5.14518e-08
-6.68595e-07
4.97257e-08
-6.80696e-07
4.80091e-08
-6.92372e-07
4.63063e-08
-7.03626e-07
4.4621e-08
-7.14464e-07
4.29562e-08
-7.2489e-07
4.13148e-08
-7.3491e-07
3.96991e-08
-7.44532e-07
3.8111e-08
-7.53761e-07
3.65519e-08
-7.62606e-07
3.5023e-08
-7.71073e-07
3.3525e-08
-7.7917e-07
3.20586e-08
-7.86904e-07
3.06237e-08
-7.94284e-07
2.92203e-08
-8.01316e-07
2.78479e-08
-8.08007e-07
2.6506e-08
-8.14366e-07
2.51937e-08
-8.20398e-07
2.39097e-08
-8.26111e-07
2.2653e-08
-8.3151e-07
2.14218e-08
-8.36601e-07
2.02147e-08
-8.4139e-07
1.90297e-08
-8.45882e-07
1.78649e-08
-8.5008e-07
1.67181e-08
-8.53989e-07
1.55872e-08
-8.57612e-07
1.44698e-08
-8.60951e-07
1.33634e-08
-8.6401e-07
1.22655e-08
-8.66788e-07
1.11734e-08
-8.69287e-07
1.00845e-08
-8.71506e-07
8.99594e-09
-8.73446e-07
7.90493e-09
-8.75105e-07
6.80858e-09
-8.76481e-07
5.70401e-09
-8.7757e-07
4.58828e-09
-8.78371e-07
3.45843e-09
-8.78877e-07
2.31153e-09
-8.79086e-07
1.14463e-09
-8.7899e-07
-4.52023e-11
-8.78584e-07
-1.26085e-09
-8.77861e-07
-2.50516e-09
-8.76812e-07
-3.78093e-09
-8.75431e-07
-5.09087e-09
-8.73707e-07
-6.43762e-09
-8.71632e-07
-7.82369e-09
-8.69195e-07
-9.25148e-09
-8.66386e-07
-1.07233e-08
-8.63193e-07
-1.22411e-08
-8.59605e-07
-1.38069e-08
-8.5561e-07
-1.54225e-08
-8.51196e-07
-1.70892e-08
-8.46349e-07
-1.88083e-08
-8.41058e-07
-2.05807e-08
-8.3531e-07
-2.24071e-08
-8.29091e-07
-2.42878e-08
-8.22388e-07
-2.62226e-08
-8.15189e-07
-2.82112e-08
-8.07482e-07
-3.02527e-08
-7.99254e-07
-3.23457e-08
-7.90493e-07
-3.44884e-08
-7.81189e-07
-3.66784e-08
-7.7133e-07
-3.89128e-08
-7.60909e-07
-4.11882e-08
-7.49915e-07
-4.35005e-08
-7.38343e-07
-4.58449e-08
-7.26185e-07
-4.8216e-08
-7.13439e-07
-5.06078e-08
-7.001e-07
-5.30133e-08
-6.86168e-07
-5.54251e-08
-6.71645e-07
-5.78347e-08
-6.56533e-07
-6.02332e-08
-6.40839e-07
-6.26106e-08
-6.24571e-07
-6.49562e-08
-6.0774e-07
-6.72586e-08
-5.90361e-07
-6.95056e-08
-5.7245e-07
-7.16841e-08
-5.54029e-07
-7.37804e-08
-5.35121e-07
-7.57801e-08
-5.15755e-07
-7.76678e-08
-4.95961e-07
-7.94279e-08
-4.75776e-07
-8.10439e-08
-4.55238e-07
-8.2499e-08
-4.34392e-07
-8.37757e-08
-4.13285e-07
-8.48563e-08
-3.91969e-07
-8.5723e-08
-3.70501e-07
-8.63575e-08
-3.4894e-07
-8.67416e-08
-3.27352e-07
-8.68575e-08
-3.05804e-07
-8.66873e-08
-2.8437e-07
-8.62137e-08
-2.63126e-07
-8.54203e-08
-2.4215e-07
-8.42911e-08
-2.21527e-07
-8.28119e-08
-2.0134e-07
-8.09695e-08
-1.81677e-07
-7.87528e-08
-1.62627e-07
-7.61529e-08
-1.4428e-07
-7.31639e-08
-1.26724e-07
-6.9783e-08
-1.10049e-07
-6.60121e-08
-9.4339e-08
-6.1858e-08
-7.96764e-08
-5.73341e-08
-6.61372e-08
-5.24616e-08
-5.37897e-08
-4.72719e-08
-4.26925e-08
-4.18088e-08
-3.28911e-08
-3.61315e-08
-2.44159e-08
-3.03189e-08
-1.72782e-08
-2.44747e-08
-1.14672e-08
-1.87333e-08
-6.9469e-09
-1.32683e-08
-3.65241e-09
-8.30198e-09
-1.4878e-09
-4.11519e-09
-3.24334e-10
-1.06013e-09
3.92918e-10
-4.29745e-10
2.01362e-12
-1.83526e-09
2.13536e-09
-4.32115e-09
5.81586e-09
-7.97254e-09
1.06019e-08
-1.28524e-08
1.61544e-08
-1.90014e-08
2.21978e-08
-2.64385e-08
2.85103e-08
-3.51631e-08
3.49154e-08
-4.51568e-08
4.12748e-08
-5.6386e-08
4.74806e-08
-6.88042e-08
5.34498e-08
-8.23544e-08
5.91201e-08
-9.6971e-08
6.44456e-08
-1.12582e-07
6.93939e-08
-1.29111e-07
7.39435e-08
-1.46479e-07
7.80817e-08
-1.64602e-07
8.18031e-08
-1.83401e-07
8.51077e-08
-2.02791e-07
8.80007e-08
-2.22692e-07
9.04904e-08
-2.43026e-07
9.25887e-08
-2.63714e-07
9.43093e-08
-2.84683e-07
9.5668e-08
-3.05862e-07
9.66819e-08
-3.27182e-07
9.73691e-08
-3.48579e-07
9.77484e-08
-3.69994e-07
9.78389e-08
-3.91369e-07
9.766e-08
-4.12651e-07
9.72311e-08
-4.33791e-07
9.65712e-08
-4.54744e-07
9.56994e-08
-4.75469e-07
9.46342e-08
-4.95928e-07
9.33933e-08
-5.16087e-07
9.19943e-08
-5.35914e-07
9.04538e-08
-5.55384e-07
8.87879e-08
-5.74471e-07
8.70118e-08
-5.93154e-07
8.514e-08
-6.11416e-07
8.31862e-08
-6.29242e-07
8.11633e-08
-6.46617e-07
7.90834e-08
-6.63532e-07
7.69578e-08
-6.79979e-07
7.47968e-08
-6.95951e-07
7.26103e-08
-7.11444e-07
7.04071e-08
-7.26457e-07
6.81954e-08
-7.40988e-07