/*--------------------------------*- C++ -*----------------------------------*\
  =========                 |
  \\      /  F ield         | OpenFOAM: The Open Source CFD Toolbox
   \\    /   O peration     | Website:  https://openfoam.org
    \\  /    A nd           | Version:  7
     \\/     M anipulation  |
\*---------------------------------------------------------------------------*/
FoamFile
{
    version     2.0;
    format      ascii;
    class       volVectorField;
    location    "0.35";
    object      U;
}
// * * * * * * * * * * * * * * * * * * * * * * * * * * * * * * * * * * * * * //

dimensions      [0 1 -1 0 0 0 0];

internalField   nonuniform List<vector> 
12800
(
(8.33859e-06 -8.31039e-06 0)
(3.71108e-05 -1.85277e-05 0)
(7.85546e-05 -1.9709e-05 0)
(0.000113266 -1.53535e-05 0)
(0.000130011 -8.31191e-06 0)
(0.000123899 -1.3943e-07 0)
(9.27848e-05 8.34321e-06 0)
(3.60531e-05 1.6696e-05 0)
(-4.59387e-05 2.46858e-05 0)
(-0.000152243 3.21928e-05 0)
(-0.00028156 3.91576e-05 0)
(-0.000432384 4.55552e-05 0)
(-0.000603092 5.13803e-05 0)
(-0.000792007 5.66393e-05 0)
(-0.000997437 6.13463e-05 0)
(-0.00121771 6.55199e-05 0)
(-0.00145117 6.9182e-05 0)
(-0.00169624 7.23562e-05 0)
(-0.00195138 7.50671e-05 0)
(-0.00221512 7.73398e-05 0)
(-0.00248606 7.92001e-05 0)
(-0.00276287 8.06735e-05 0)
(-0.0030443 8.17855e-05 0)
(-0.00332919 8.25608e-05 0)
(-0.00361643 8.30238e-05 0)
(-0.00390499 8.31981e-05 0)
(-0.00419394 8.3107e-05 0)
(-0.0044824 8.27727e-05 0)
(-0.00476956 8.22166e-05 0)
(-0.00505469 8.14592e-05 0)
(-0.00533711 8.05203e-05 0)
(-0.00561624 7.94187e-05 0)
(-0.00589151 7.81722e-05 0)
(-0.00616246 7.67978e-05 0)
(-0.00642864 7.53114e-05 0)
(-0.00668968 7.37281e-05 0)
(-0.00694526 7.20619e-05 0)
(-0.0071951 7.03261e-05 0)
(-0.00743895 6.8533e-05 0)
(-0.00767663 6.66939e-05 0)
(-0.00790798 6.48194e-05 0)
(-0.00813287 6.29193e-05 0)
(-0.00835122 6.10025e-05 0)
(-0.00856297 5.90771e-05 0)
(-0.00876808 5.71505e-05 0)
(-0.00896656 5.52293e-05 0)
(-0.0091584 5.33194e-05 0)
(-0.00934366 5.14264e-05 0)
(-0.00952238 4.95549e-05 0)
(-0.00969463 4.77089e-05 0)
(-0.0098605 4.5892e-05 0)
(-0.0100201 4.41073e-05 0)
(-0.0101735 4.23572e-05 0)
(-0.0103208 4.06437e-05 0)
(-0.0104622 3.89684e-05 0)
(-0.0105977 3.73326e-05 0)
(-0.0107276 3.57371e-05 0)
(-0.0108519 3.41822e-05 0)
(-0.0109708 3.26679e-05 0)
(-0.0110844 3.11942e-05 0)
(-0.0111928 2.97605e-05 0)
(-0.0112962 2.83661e-05 0)
(-0.0113947 2.70096e-05 0)
(-0.0114884 2.56899e-05 0)
(-0.0115775 2.44054e-05 0)
(-0.0116621 2.31545e-05 0)
(-0.0117422 2.19353e-05 0)
(-0.011818 2.07455e-05 0)
(-0.0118896 1.95829e-05 0)
(-0.011957 1.84451e-05 0)
(-0.0120203 1.73296e-05 0)
(-0.0120797 1.62339e-05 0)
(-0.0121351 1.5155e-05 0)
(-0.0121867 1.40899e-05 0)
(-0.0122344 1.30356e-05 0)
(-0.0122783 1.19891e-05 0)
(-0.0123184 1.09474e-05 0)
(-0.0123548 9.90712e-06 0)
(-0.0123873 8.86495e-06 0)
(-0.0124161 7.81739e-06 0)
(-0.012441 6.76102e-06 0)
(-0.0124621 5.69242e-06 0)
(-0.0124793 4.60817e-06 0)
(-0.0124925 3.50476e-06 0)
(-0.0125017 2.37865e-06 0)
(-0.0125067 1.22634e-06 0)
(-0.0125076 4.43777e-08 0)
(-0.0125041 -1.17073e-06 0)
(-0.0124961 -2.42247e-06 0)
(-0.0124836 -3.71427e-06 0)
(-0.0124664 -5.04942e-06 0)
(-0.0124443 -6.43109e-06 0)
(-0.0124171 -7.86231e-06 0)
(-0.0123848 -9.34605e-06 0)
(-0.012347 -1.08852e-05 0)
(-0.0123037 -1.24824e-05 0)
(-0.0122546 -1.41402e-05 0)
(-0.0121995 -1.58607e-05 0)
(-0.0121382 -1.76458e-05 0)
(-0.0120705 -1.94972e-05 0)
(-0.0119961 -2.14162e-05 0)
(-0.0119148 -2.3404e-05 0)
(-0.0118265 -2.5461e-05 0)
(-0.0117308 -2.75875e-05 0)
(-0.0116275 -2.9783e-05 0)
(-0.0115164 -3.20469e-05 0)
(-0.0113974 -3.43778e-05 0)
(-0.0112701 -3.67737e-05 0)
(-0.0111343 -3.92321e-05 0)
(-0.01099 -4.17497e-05 0)
(-0.0108368 -4.43224e-05 0)
(-0.0106746 -4.69457e-05 0)
(-0.0105034 -4.96139e-05 0)
(-0.0103228 -5.23208e-05 0)
(-0.0101329 -5.50588e-05 0)
(-0.00993356 -5.782e-05 0)
(-0.00972475 -6.05951e-05 0)
(-0.00950643 -6.33742e-05 0)
(-0.00927865 -6.61462e-05 0)
(-0.00904147 -6.88987e-05 0)
(-0.008795 -7.16186e-05 0)
(-0.00853938 -7.42918e-05 0)
(-0.00827484 -7.69031e-05 0)
(-0.00800162 -7.94361e-05 0)
(-0.00772004 -8.18735e-05 0)
(-0.00743049 -8.41968e-05 0)
(-0.0071334 -8.63868e-05 0)
(-0.00682928 -8.84232e-05 0)
(-0.00651872 -9.02849e-05 0)
(-0.00620234 -9.19498e-05 0)
(-0.0058809 -9.33949e-05 0)
(-0.00555517 -9.45969e-05 0)
(-0.00522606 -9.55316e-05 0)
(-0.0048945 -9.61741e-05 0)
(-0.00456156 -9.64993e-05 0)
(-0.00422834 -9.64816e-05 0)
(-0.00389607 -9.60952e-05 0)
(-0.00356602 -9.5314e-05 0)
(-0.00323957 -9.41119e-05 0)
(-0.00291817 -9.2463e-05 0)
(-0.00260335 -9.03415e-05 0)
(-0.00229672 -8.7722e-05 0)
(-0.00199995 -8.45794e-05 0)
(-0.00171478 -8.08898e-05 0)
(-0.00144303 -7.66302e-05 0)
(-0.00118653 -7.17791e-05 0)
(-0.000947195 -6.63168e-05 0)
(-0.000726934 -6.02272e-05 0)
(-0.00052767 -5.3499e-05 0)
(-0.000351296 -4.61284e-05 0)
(-0.000199638 -3.81235e-05 0)
(-7.43836e-05 -2.95123e-05 0)
(2.30066e-05 -2.03585e-05 0)
(9.146e-05 -1.07908e-05 0)
(0.000130548 -1.05994e-06 0)
(0.000140902 8.35459e-06 0)
(0.00012484 1.65489e-05 0)
(8.77243e-05 2.17904e-05 0)
(4.20485e-05 2.08592e-05 0)
(9.63503e-06 9.63104e-06 0)
(1.8564e-05 -3.70696e-05 0)
(7.0382e-05 -7.02856e-05 0)
(0.000132088 -6.77551e-05 0)
(0.000170195 -4.20905e-05 0)
(0.000163421 -3.1556e-06 0)
(0.000100335 4.27149e-05 0)
(-2.53331e-05 9.15519e-05 0)
(-0.000216321 0.000140874 0)
(-0.00047284 0.000189135 0)
(-0.000793385 0.000235374 0)
(-0.00117531 0.000278996 0)
(-0.00161523 0.00031965 0)
(-0.00210927 0.000357139 0)
(-0.00265327 0.000391371 0)
(-0.00324293 0.000422331 0)
(-0.00387389 0.000450053 0)
(-0.00454181 0.000474609 0)
(-0.00524244 0.000496096 0)
(-0.00597163 0.000514631 0)
(-0.00672536 0.000530341 0)
(-0.00749981 0.000543364 0)
(-0.00829129 0.000553845 0)
(-0.00909634 0.000561931 0)
(-0.00991167 0.000567769 0)
(-0.0107342 0.000571507 0)
(-0.011561 0.000573293 0)
(-0.0123895 0.000573271 0)
(-0.0132171 0.000571583 0)
(-0.0140415 0.000568366 0)
(-0.0148607 0.000563753 0)
(-0.0156726 0.000557875 0)
(-0.0164757 0.000550853 0)
(-0.0172681 0.000542807 0)
(-0.0180487 0.00053385 0)
(-0.0188161 0.000524088 0)
(-0.0195691 0.000513623 0)
(-0.0203069 0.000502551 0)
(-0.0210286 0.000490961 0)
(-0.0217335 0.000478938 0)
(-0.022421 0.000466561 0)
(-0.0230905 0.000453901 0)
(-0.0237418 0.000441027 0)
(-0.0243746 0.000428001 0)
(-0.0249885 0.00041488 0)
(-0.0255836 0.000401715 0)
(-0.0261597 0.000388554 0)
(-0.0267169 0.00037544 0)
(-0.0272552 0.000362409 0)
(-0.0277748 0.000349497 0)
(-0.0282758 0.000336733 0)
(-0.0287585 0.000324143 0)
(-0.0292231 0.000311748 0)
(-0.0296698 0.000299568 0)
(-0.0300991 0.000287619 0)
(-0.0305111 0.000275911 0)
(-0.0309064 0.000264456 0)
(-0.0312851 0.000253259 0)
(-0.0316477 0.000242325 0)
(-0.0319945 0.000231656 0)
(-0.0323259 0.00022125 0)
(-0.0326424 0.000211106 0)
(-0.0329441 0.000201219 0)
(-0.0332316 0.000191583 0)
(-0.0335051 0.000182188 0)
(-0.033765 0.000173026 0)
(-0.0340116 0.000164086 0)
(-0.0342453 0.000155355 0)
(-0.0344662 0.000146819 0)
(-0.0346747 0.000138463 0)
(-0.034871 0.000130272 0)
(-0.0350553 0.000122228 0)
(-0.0352278 0.000114313 0)
(-0.0353887 0.000106509 0)
(-0.0355382 9.87961e-05 0)
(-0.0356763 9.11539e-05 0)
(-0.0358031 8.35616e-05 0)
(-0.0359188 7.5998e-05 0)
(-0.0360232 6.84412e-05 0)
(-0.0361164 6.08689e-05 0)
(-0.0361984 5.3258e-05 0)
(-0.0362691 4.55853e-05 0)
(-0.0363284 3.78278e-05 0)
(-0.0363761 2.9962e-05 0)
(-0.036412 2.19645e-05 0)
(-0.0364361 1.38118e-05 0)
(-0.0364479 5.48011e-06 0)
(-0.0364473 -3.05374e-06 0)
(-0.036434 -1.18129e-05 0)
(-0.0364075 -2.08202e-05 0)
(-0.0363676 -3.0098e-05 0)
(-0.0363138 -3.9668e-05 0)
(-0.0362457 -4.95513e-05 0)
(-0.0361629 -5.9768e-05 0)
(-0.0360648 -7.03372e-05 0)
(-0.0359509 -8.12771e-05 0)
(-0.0358208 -9.26046e-05 0)
(-0.0356738 -0.000104335 0)
(-0.0355093 -0.000116483 0)
(-0.0353268 -0.000129059 0)
(-0.0351256 -0.000142073 0)
(-0.0349052 -0.000155533 0)
(-0.0346648 -0.000169444 0)
(-0.0344039 -0.000183808 0)
(-0.0341218 -0.000198625 0)
(-0.0338179 -0.00021389 0)
(-0.0334916 -0.000229597 0)
(-0.0331422 -0.000245733 0)
(-0.0327692 -0.000262284 0)
(-0.032372 -0.00027923 0)
(-0.03195 -0.000296547 0)
(-0.0315029 -0.000314206 0)
(-0.0310301 -0.000332172 0)
(-0.0305313 -0.000350406 0)
(-0.0300062 -0.000368863 0)
(-0.0294544 -0.000387492 0)
(-0.0288758 -0.000406235 0)
(-0.0282704 -0.000425029 0)
(-0.027638 -0.000443805 0)
(-0.026979 -0.000462485 0)
(-0.0262933 -0.000480987 0)
(-0.0255816 -0.000499221 0)
(-0.0248441 -0.000517089 0)
(-0.0240815 -0.00053449 0)
(-0.0232947 -0.000551312 0)
(-0.0224845 -0.00056744 0)
(-0.0216521 -0.00058275 0)
(-0.0207987 -0.000597114 0)
(-0.0199259 -0.000610396 0)
(-0.0190353 -0.000622457 0)
(-0.0181288 -0.000633151 0)
(-0.0172084 -0.000642329 0)
(-0.0162765 -0.000649837 0)
(-0.0153355 -0.000655519 0)
(-0.0143883 -0.000659216 0)
(-0.0134377 -0.000660765 0)
(-0.0124869 -0.000660006 0)
(-0.0115393 -0.000656776 0)
(-0.0105986 -0.000650916 0)
(-0.00966854 -0.000642266 0)
(-0.00875319 -0.000630672 0)
(-0.00785678 -0.000615986 0)
(-0.00698376 -0.000598065 0)
(-0.00613871 -0.000576778 0)
(-0.00532638 -0.000552005 0)
(-0.00455165 -0.000523644 0)
(-0.00381949 -0.000491613 0)
(-0.00313491 -0.000455861 0)
(-0.0025029 -0.000416375 0)
(-0.00192837 -0.000373199 0)
(-0.00141604 -0.000326452 0)
(-0.000970264 -0.000276369 0)
(-0.000594873 -0.000223349 0)
(-0.000292847 -0.000168045 0)
(-6.59025e-05 -0.000111513 0)
(8.61352e-05 -5.54471e-05 0)
(0.000166236 -2.58188e-06 0)
(0.00018129 4.2679e-05 0)
(0.000143964 7.32441e-05 0)
(7.79812e-05 7.79396e-05 0)
(2.08652e-05 4.20284e-05 0)
(1.98116e-05 -7.86228e-05 0)
(6.81272e-05 -0.00013209 0)
(0.000111235 -0.000110675 0)
(0.000110433 -3.9466e-05 0)
(4.04628e-05 6.29583e-05 0)
(-0.000113536 0.000183376 0)
(-0.000360458 0.000312639 0)
(-0.000704706 0.000444539 0)
(-0.00114722 0.000574899 0)
(-0.00168645 0.000700921 0)
(-0.00231905 0.000820758 0)
(-0.00304043 0.000933215 0)
(-0.00384517 0.00103755 0)
(-0.00472728 0.00113335 0)
(-0.00568045 0.00122043 0)
(-0.00669819 0.00129876 0)
(-0.00777398 0.00136846 0)
(-0.00890135 0.00142972 0)
(-0.0100739 0.00148281 0)
(-0.0112856 0.00152802 0)
(-0.0125303 0.00156572 0)
(-0.0138024 0.00159626 0)
(-0.0150965 0.00162003 0)
(-0.0164073 0.00163742 0)
(-0.01773 0.00164885 0)
(-0.0190601 0.0016547 0)
(-0.0203932 0.00165537 0)
(-0.0217254 0.00165126 0)
(-0.0230531 0.00164275 0)
(-0.0243728 0.0016302 0)
(-0.0256815 0.00161399 0)
(-0.0269763 0.00159446 0)
(-0.0282547 0.00157194 0)
(-0.0295144 0.00154675 0)
(-0.0307534 0.00151921 0)
(-0.0319699 0.00148959 0)
(-0.0331622 0.00145817 0)
(-0.0343289 0.00142522 0)
(-0.035469 0.00139096 0)
(-0.0365814 0.00135563 0)
(-0.0376653 0.00131944 0)
(-0.0387201 0.00128258 0)
(-0.0397452 0.00124524 0)
(-0.0407402 0.00120757 0)
(-0.0417051 0.00116973 0)
(-0.0426395 0.00113185 0)
(-0.0435436 0.00109407 0)
(-0.0444174 0.00105649 0)
(-0.0452611 0.00101921 0)
(-0.0460749 0.00098232 0)
(-0.0468591 0.000945895 0)
(-0.0476142 0.000910001 0)
(-0.0483405 0.000874694 0)
(-0.0490385 0.000840021 0)
(-0.0497087 0.000806019 0)
(-0.0503516 0.000772716 0)
(-0.0509678 0.000740135 0)
(-0.0515578 0.000708288 0)
(-0.0521223 0.000677183 0)
(-0.0526618 0.000646819 0)
(-0.0531768 0.00061719 0)
(-0.053668 0.000588285 0)
(-0.0541359 0.000560085 0)
(-0.0545811 0.00053257 0)
(-0.055004 0.000505711 0)
(-0.0554052 0.000479479 0)
(-0.0557852 0.000453837 0)
(-0.0561445 0.000428748 0)
(-0.0564833 0.000404169 0)
(-0.0568022 0.000380055 0)
(-0.0571014 0.000356357 0)
(-0.0573813 0.000333024 0)
(-0.0576422 0.000310003 0)
(-0.0578842 0.000287238 0)
(-0.0581075 0.000264673 0)
(-0.0583124 0.000242246 0)
(-0.0584987 0.000219898 0)
(-0.0586667 0.000197565 0)
(-0.0588163 0.000175183 0)
(-0.0589473 0.000152689 0)
(-0.0590598 0.000130015 0)
(-0.0591534 0.000107096 0)
(-0.0592281 8.38644e-05 0)
(-0.0592834 6.02536e-05 0)
(-0.0593192 3.61965e-05 0)
(-0.059335 1.16263e-05 0)
(-0.0593303 -1.35235e-05 0)
(-0.0593047 -3.93186e-05 0)
(-0.0592577 -6.58232e-05 0)
(-0.0591886 -9.31002e-05 0)
(-0.0590968 -0.000121211 0)
(-0.0589816 -0.000150215 0)
(-0.0588424 -0.000180169 0)
(-0.0586782 -0.000211126 0)
(-0.0584884 -0.000243137 0)
(-0.058272 -0.00027625 0)
(-0.0580282 -0.000310505 0)
(-0.0577561 -0.00034594 0)
(-0.0574547 -0.000382589 0)
(-0.057123 -0.000420476 0)
(-0.0567601 -0.00045962 0)
(-0.0563649 -0.000500035 0)
(-0.0559366 -0.000541724 0)
(-0.055474 -0.000584684 0)
(-0.0549762 -0.000628899 0)
(-0.0544423 -0.000674346 0)
(-0.0538713 -0.00072099 0)
(-0.0532622 -0.000768785 0)
(-0.0526143 -0.000817671 0)
(-0.0519267 -0.000867577 0)
(-0.0511987 -0.000918417 0)
(-0.0504295 -0.000970091 0)
(-0.0496187 -0.00102248 0)
(-0.0487657 -0.00107546 0)
(-0.0478703 -0.00112887 0)
(-0.046932 -0.00118255 0)
(-0.0459509 -0.00123632 0)
(-0.044927 -0.00128998 0)
(-0.0438605 -0.0013433 0)
(-0.0427519 -0.00139605 0)
(-0.0416017 -0.00144797 0)
(-0.0404107 -0.00149878 0)
(-0.0391801 -0.00154819 0)
(-0.0379111 -0.00159588 0)
(-0.0366052 -0.00164152 0)
(-0.0352643 -0.00168477 0)
(-0.0338905 -0.00172525 0)
(-0.0324861 -0.00176259 0)
(-0.0310538 -0.00179639 0)
(-0.0295967 -0.00182623 0)
(-0.0281181 -0.00185171 0)
(-0.0266216 -0.00187239 0)
(-0.0251113 -0.00188783 0)
(-0.0235915 -0.00189758 0)
(-0.0220669 -0.00190121 0)
(-0.0205426 -0.00189826 0)
(-0.0190238 -0.00188829 0)
(-0.0175163 -0.00187086 0)
(-0.0160262 -0.00184556 0)
(-0.0145597 -0.00181196 0)
(-0.0131235 -0.00176967 0)
(-0.0117245 -0.00171834 0)
(-0.0103697 -0.00165764 0)
(-0.0090666 -0.00158729 0)
(-0.00782255 -0.00150706 0)
(-0.00664513 -0.00141681 0)
(-0.00554189 -0.0013165 0)
(-0.00452029 -0.00120622 0)
(-0.00358753 -0.00108624 0)
(-0.00275042 -0.000957071 0)
(-0.00201511 -0.000819587 0)
(-0.00138675 -0.000675138 0)
(-0.000869131 -0.000525781 0)
(-0.000464036 -0.000374606 0)
(-0.00017047 -0.000226226 0)
(1.63969e-05 -8.75122e-05 0)
(0.000106408 3.13528e-05 0)
(0.000116086 0.000115543 0)
(7.35451e-05 0.000144004 0)
(2.18485e-05 8.77497e-05 0)
(1.55832e-05 -0.00011367 0)
(4.29334e-05 -0.000170676 0)
(4.09112e-05 -0.000110082 0)
(-2.80998e-05 2.97191e-05 0)
(-0.000189802 0.000221189 0)
(-0.000460384 0.000443889 0)
(-0.000849918 0.000682952 0)
(-0.00136364 0.000927783 0)
(-0.00200291 0.00117091 0)
(-0.00276615 0.00140711 0)
(-0.00364957 0.00163278 0)
(-0.00464776 0.00184546 0)
(-0.00575416 0.00204358 0)
(-0.00696143 0.00222615 0)
(-0.00826168 0.00239266 0)
(-0.00964675 0.00254293 0)
(-0.0111083 0.00267705 0)
(-0.0126381 0.00279529 0)
(-0.0142279 0.00289805 0)
(-0.0158697 0.00298586 0)
(-0.0175557 0.00305932 0)
(-0.0192784 0.00311908 0)
(-0.0210306 0.00316586 0)
(-0.0228056 0.00320036 0)
(-0.0245969 0.00322333 0)
(-0.0263983 0.00323552 0)
(-0.0282043 0.00323767 0)
(-0.0300095 0.00323052 0)
(-0.0318089 0.0032148 0)
(-0.0335981 0.00319121 0)
(-0.0353729 0.00316045 0)
(-0.0371294 0.00312318 0)
(-0.0388643 0.00308005 0)
(-0.0405743 0.00303167 0)
(-0.0422568 0.00297863 0)
(-0.0439092 0.00292149 0)
(-0.0455294 0.00286078 0)
(-0.0471154 0.00279701 0)
(-0.0486657 0.00273063 0)
(-0.0501789 0.0026621 0)
(-0.0516538 0.00259181 0)
(-0.0530895 0.00252016 0)
(-0.0544853 0.00244749 0)
(-0.0558407 0.00237413 0)
(-0.0571552 0.00230037 0)
(-0.0584288 0.00222649 0)
(-0.0596614 0.00215273 0)
(-0.060853 0.0020793 0)
(-0.0620038 0.00200641 0)
(-0.0631142 0.00193423 0)
(-0.0641845 0.00186292 0)
(-0.0652152 0.00179259 0)
(-0.0662069 0.00172336 0)
(-0.0671601 0.00165534 0)
(-0.0680755 0.00158858 0)
(-0.0689538 0.00152316 0)
(-0.0697957 0.0014591 0)
(-0.070602 0.00139646 0)
(-0.0713734 0.00133523 0)
(-0.0721107 0.00127542 0)
(-0.0728146 0.00121702 0)
(-0.0734858 0.00116 0)
(-0.0741253 0.00110435 0)
(-0.0747336 0.00105001 0)
(-0.0753114 0.000996931 0)
(-0.0758595 0.000945059 0)
(-0.0763784 0.000894324 0)
(-0.0768688 0.000844653 0)
(-0.0773312 0.000795965 0)
(-0.0777661 0.000748171 0)
(-0.078174 0.000701178 0)
(-0.0785553 0.000654888 0)
(-0.0789104 0.000609198 0)
(-0.0792395 0.000563999 0)
(-0.0795429 0.000519182 0)
(-0.0798207 0.000474629 0)
(-0.0800731 0.000430223 0)
(-0.0803001 0.000385842 0)
(-0.0805017 0.000341363 0)
(-0.0806777 0.00029666 0)
(-0.0808281 0.000251606 0)
(-0.0809526 0.000206072 0)
(-0.0810509 0.000159929 0)
(-0.0811226 0.000113047 0)
(-0.0811672 6.52958e-05 0)
(-0.0811844 1.65474e-05 0)
(-0.0811734 -3.33265e-05 0)
(-0.0811336 -8.44524e-05 0)
(-0.0810644 -0.000136955 0)
(-0.0809648 -0.000190954 0)
(-0.0808341 -0.000246568 0)
(-0.0806714 -0.000303911 0)
(-0.0804756 -0.000363091 0)
(-0.0802458 -0.00042421 0)
(-0.0799808 -0.000487366 0)
(-0.0796796 -0.000552646 0)
(-0.0793409 -0.00062013 0)
(-0.0789635 -0.000689889 0)
(-0.0785462 -0.000761982 0)
(-0.0780877 -0.000836457 0)
(-0.0775867 -0.000913349 0)
(-0.0770419 -0.000992678 0)
(-0.0764519 -0.00107445 0)
(-0.0758156 -0.00115865 0)
(-0.0751315 -0.00124525 0)
(-0.0743984 -0.0013342 0)
(-0.073615 -0.00142543 0)
(-0.0727803 -0.00151884 0)
(-0.071893 -0.00161432 0)
(-0.0709521 -0.00171172 0)
(-0.0699567 -0.00181088 0)
(-0.0689059 -0.00191159 0)
(-0.0677989 -0.00201362 0)
(-0.0666352 -0.00211672 0)
(-0.0654143 -0.00222059 0)
(-0.0641359 -0.00232492 0)
(-0.0628001 -0.00242933 0)
(-0.0614068 -0.00253345 0)
(-0.0599564 -0.00263683 0)
(-0.0584496 -0.00273902 0)
(-0.0568872 -0.00283951 0)
(-0.0552704 -0.00293777 0)
(-0.0536006 -0.00303322 0)
(-0.0518796 -0.00312526 0)
(-0.0501094 -0.00321325 0)
(-0.0482927 -0.00329652 0)
(-0.0464322 -0.00337435 0)
(-0.0445312 -0.00344601 0)
(-0.0425932 -0.00351075 0)
(-0.0406225 -0.00356778 0)
(-0.0386234 -0.00361629 0)
(-0.0366009 -0.00365547 0)
(-0.0345604 -0.00368447 0)
(-0.0325076 -0.00370245 0)
(-0.0304488 -0.00370858 0)
(-0.0283907 -0.003702 0)
(-0.0263405 -0.00368188 0)
(-0.0243057 -0.00364741 0)
(-0.0222942 -0.0035978 0)
(-0.0203144 -0.0035323 0)
(-0.0183751 -0.0034502 0)
(-0.0164852 -0.00335086 0)
(-0.014654 -0.00323372 0)
(-0.012891 -0.00309832 0)
(-0.011206 -0.00294432 0)
(-0.00960847 -0.00277156 0)
(-0.00810815 -0.00258008 0)
(-0.00671444 -0.00237022 0)
(-0.00543633 -0.00214267 0)
(-0.00428219 -0.00189862 0)
(-0.00325947 -0.00163991 0)
(-0.00237427 -0.00136932 0)
(-0.00163086 -0.00109089 0)
(-0.00103106 -0.000810409 0)
(-0.000573376 -0.000536156 0)
(-0.000252033 -0.000279884 0)
(-5.58497e-05 -5.81544e-05 0)
(3.31898e-05 0.000106132 0)
(4.35655e-05 0.000181866 0)
(1.67359e-05 0.00012514 0)
(8.69755e-06 -0.000131052 0)
(4.49739e-06 -0.000164822 0)
(-6.07346e-05 -4.07059e-05 0)
(-0.000218715 0.000191252 0)
(-0.000492949 0.000495205 0)
(-0.000899419 0.000843902 0)
(-0.00144819 0.00121689 0)
(-0.00214451 0.00159908 0)
(-0.00298971 0.00197949 0)
(-0.00398199 0.00235016 0)
(-0.00511714 0.00270541 0)
(-0.00638907 0.00304129 0)
(-0.00779034 0.00335509 0)
(-0.00931252 0.00364509 0)
(-0.0109465 0.00391028 0)
(-0.0126827 0.00415023 0)
(-0.0145114 0.0043649 0)
(-0.0164228 0.0045546 0)
(-0.0184071 0.00471986 0)
(-0.0204548 0.00486143 0)
(-0.0225564 0.00498018 0)
(-0.024703 0.00507709 0)
(-0.0268859 0.00515322 0)
(-0.0290968 0.00520968 0)
(-0.0313279 0.00524761 0)
(-0.0335717 0.00526818 0)
(-0.0358213 0.00527257 0)
(-0.0380702 0.00526192 0)
(-0.0403123 0.00523739 0)
(-0.042542 0.0052001 0)
(-0.0447541 0.00515116 0)
(-0.0469441 0.00509163 0)
(-0.0491074 0.00502254 0)
(-0.0512404 0.00494487 0)
(-0.0533396 0.00485958 0)
(-0.0554017 0.00476756 0)
(-0.0574242 0.00466966 0)
(-0.0594046 0.0045667 0)
(-0.0613409 0.00445944 0)
(-0.0632313 0.00434858 0)
(-0.0650744 0.0042348 0)
(-0.066869 0.00411872 0)
(-0.0686142 0.00400089 0)
(-0.0703093 0.00388186 0)
(-0.0719538 0.00376211 0)
(-0.0735474 0.00364208 0)
(-0.07509 0.00352216 0)
(-0.0765818 0.00340272 0)
(-0.0780228 0.00328408 0)
(-0.0794134 0.00316653 0)
(-0.0807541 0.00305031 0)
(-0.0820455 0.00293564 0)
(-0.0832882 0.0028227 0)
(-0.0844828 0.00271165 0)
(-0.0856303 0.00260262 0)
(-0.0867314 0.0024957 0)
(-0.0877869 0.00239097 0)
(-0.0887979 0.00228848 0)
(-0.0897651 0.00218825 0)
(-0.0906896 0.00209028 0)
(-0.0915723 0.00199458 0)
(-0.092414 0.0019011 0)
(-0.0932157 0.00180979 0)
(-0.0939783 0.00172059 0)
(-0.0947026 0.00163342 0)
(-0.0953894 0.00154819 0)
(-0.0960396 0.00146478 0)
(-0.0966538 0.00138308 0)
(-0.0972327 0.00130295 0)
(-0.097777 0.00122426 0)
(-0.0982872 0.00114686 0)
(-0.0987638 0.00107059 0)
(-0.0992073 0.000995276 0)
(-0.0996179 0.000920752 0)
(-0.099996 0.000846836 0)
(-0.100342 0.000773342 0)
(-0.100656 0.000700079 0)
(-0.100937 0.000626851 0)
(-0.101186 0.000553459 0)
(-0.101404 0.0004797 0)
(-0.101588 0.000405368 0)
(-0.10174 0.000330256 0)
(-0.101859 0.000254157 0)
(-0.101944 0.000176859 0)
(-0.101995 9.81559e-05 0)
(-0.102012 1.78388e-05 0)
(-0.101992 -6.42979e-05 0)
(-0.101937 -0.000148457 0)
(-0.101844 -0.000234838 0)
(-0.101713 -0.000323635 0)
(-0.101543 -0.000415037 0)
(-0.101333 -0.000509226 0)
(-0.101081 -0.000606374 0)
(-0.100787 -0.000706645 0)
(-0.100448 -0.000810192 0)
(-0.100064 -0.000917156 0)
(-0.0996327 -0.00102766 0)
(-0.0991532 -0.00114182 0)
(-0.0986237 -0.00125972 0)
(-0.0980427 -0.00138145 0)
(-0.0974087 -0.00150704 0)
(-0.09672 -0.00163653 0)
(-0.095975 -0.00176993 0)
(-0.0951721 -0.00190721 0)
(-0.0943098 -0.00204831 0)
(-0.0933866 -0.00219316 0)
(-0.0924009 -0.00234162 0)
(-0.0913513 -0.00249355 0)
(-0.0902365 -0.00264875 0)
(-0.0890552 -0.00280698 0)
(-0.0878063 -0.00296796 0)
(-0.0864888 -0.00313136 0)
(-0.0851017 -0.00329682 0)
(-0.0836445 -0.00346391 0)
(-0.0821166 -0.00363215 0)
(-0.0805177 -0.00380102 0)
(-0.0788478 -0.00396993 0)
(-0.0771071 -0.00413825 0)
(-0.075296 -0.00430528 0)
(-0.0734154 -0.00447028 0)
(-0.0714663 -0.00463242 0)
(-0.0694503 -0.00479085 0)
(-0.0673692 -0.00494463 0)
(-0.0652252 -0.00509281 0)
(-0.0630209 -0.00523433 0)
(-0.0607595 -0.00536813 0)
(-0.0584444 -0.00549306 0)
(-0.0560798 -0.00560796 0)
(-0.0536701 -0.0057116 0)
(-0.0512203 -0.00580272 0)
(-0.048736 -0.00588006 0)
(-0.0462232 -0.00594229 0)
(-0.0436885 -0.00598808 0)
(-0.0411391 -0.00601611 0)
(-0.0385826 -0.00602504 0)
(-0.0360271 -0.00601354 0)
(-0.0334814 -0.0059803 0)
(-0.0309547 -0.00592406 0)
(-0.0284566 -0.0058436 0)
(-0.0259973 -0.00573776 0)
(-0.0235872 -0.00560548 0)
(-0.0212373 -0.00544581 0)
(-0.0189586 -0.00525793 0)
(-0.0167626 -0.00504121 0)
(-0.0146607 -0.00479524 0)
(-0.0126643 -0.00451991 0)
(-0.0107849 -0.00421544 0)
(-0.00903329 -0.00388255 0)
(-0.00742005 -0.00352253 0)
(-0.00595475 -0.00313749 0)
(-0.00464584 -0.00273054 0)
(-0.00350017 -0.0023062 0)
(-0.00252252 -0.00187084 0)
(-0.0017149 -0.0014333 0)
(-0.00107585 -0.00100579 0)
(-0.000599558 -0.000605058 0)
(-0.000274823 -0.000253873 0)
(-8.38787e-05 1.72946e-05 0)
(-8.49979e-07 0.000168125 0)
(8.73923e-06 0.00014188 0)
(6.68726e-07 -0.000125854 0)
(-4.10579e-05 -0.0001029 0)
(-0.000181029 0.000112729 0)
(-0.000441993 0.000461982 0)
(-0.000843353 0.000901894 0)
(-0.00139969 0.00139914 0)
(-0.00212008 0.0019281 0)
(-0.00300907 0.00246939 0)
(-0.00406745 0.00300851 0)
(-0.00529293 0.00353467 0)
(-0.00668074 0.00404 0)
(-0.00822412 0.00451882 0)
(-0.00991486 0.00496718 0)
(-0.0117436 0.00538244 0)
(-0.0137001 0.005763 0)
(-0.0157739 0.00610802 0)
(-0.0179538 0.00641731 0)
(-0.0202288 0.00669113 0)
(-0.0225879 0.00693015 0)
(-0.0250201 0.00713528 0)
(-0.0275147 0.0073077 0)
(-0.0300614 0.00744872 0)
(-0.0326501 0.0075598 0)
(-0.0352715 0.00764247 0)
(-0.0379162 0.00769834 0)
(-0.0405758 0.00772905 0)
(-0.0432422 0.00773624 0)
(-0.0459077 0.00772157 0)
(-0.0485653 0.00768667 0)
(-0.0512085 0.00763316 0)
(-0.0538311 0.00756262 0)
(-0.0564277 0.00747658 0)
(-0.0589933 0.00737651 0)
(-0.0615232 0.00726386 0)
(-0.0640134 0.00713998 0)
(-0.0664602 0.00700619 0)
(-0.0688604 0.00686372 0)
(-0.0712111 0.00671376 0)
(-0.0735099 0.0065574 0)
(-0.0757547 0.00639569 0)
(-0.0779438 0.00622959 0)
(-0.0800757 0.00606003 0)
(-0.0821494 0.00588782 0)
(-0.0841639 0.00571375 0)
(-0.0861187 0.00553852 0)
(-0.0880133 0.00536278 0)
(-0.0898477 0.00518712 0)
(-0.0916219 0.00501207 0)
(-0.0933361 0.00483811 0)
(-0.0949906 0.00466564 0)
(-0.096586 0.00449505 0)
(-0.0981229 0.00432665 0)
(-0.099602 0.00416072 0)
(-0.101024 0.00399748 0)
(-0.10239 0.00383713 0)
(-0.103701 0.00367981 0)
(-0.104958 0.00352564 0)
(-0.106162 0.00337468 0)
(-0.107314 0.00322699 0)
(-0.108415 0.00308257 0)
(-0.109466 0.00294141 0)
(-0.110468 0.00280346 0)
(-0.111422 0.00266866 0)
(-0.11233 0.00253691 0)
(-0.113192 0.00240809 0)
(-0.11401 0.00228207 0)
(-0.114783 0.0021587 0)
(-0.115513 0.0020378 0)
(-0.116202 0.00191919 0)
(-0.116849 0.00180265 0)
(-0.117454 0.00168798 0)
(-0.11802 0.00157494 0)
(-0.118546 0.0014633 0)
(-0.119033 0.00135279 0)
(-0.11948 0.00124316 0)
(-0.119889 0.00113414 0)
(-0.120259 0.00102544 0)
(-0.120591 0.000916795 0)
(-0.120884 0.0008079 0)
(-0.121138 0.000698465 0)
(-0.121354 0.000588192 0)
(-0.12153 0.000476779 0)
(-0.121666 0.000363922 0)
(-0.121763 0.00024932 0)
(-0.121818 0.000132668 0)
(-0.121831 1.36649e-05 0)
(-0.121802 -0.000107987 0)
(-0.12173 -0.000232581 0)
(-0.121613 -0.000360406 0)
(-0.121451 -0.000491744 0)
(-0.121242 -0.000626866 0)
(-0.120984 -0.000766035 0)
(-0.120677 -0.0009095 0)
(-0.120319 -0.0010575 0)
(-0.119909 -0.00121024 0)
(-0.119444 -0.00136794 0)
(-0.118924 -0.00153077 0)
(-0.118346 -0.00169888 0)
(-0.117709 -0.00187242 0)
(-0.11701 -0.00205147 0)
(-0.116249 -0.00223612 0)
(-0.115422 -0.00242639 0)
(-0.114529 -0.00262229 0)
(-0.113568 -0.00282378 0)
(-0.112536 -0.00303078 0)
(-0.111432 -0.00324315 0)
(-0.110255 -0.00346071 0)
(-0.109002 -0.00368324 0)
(-0.107672 -0.00391043 0)
(-0.106263 -0.00414194 0)
(-0.104775 -0.00437735 0)
(-0.103206 -0.0046162 0)
(-0.101555 -0.00485792 0)
(-0.0998219 -0.00510189 0)
(-0.0980054 -0.00534743 0)
(-0.0961054 -0.00559376 0)
(-0.094122 -0.00584002 0)
(-0.0920555 -0.0060853 0)
(-0.0899064 -0.00632856 0)
(-0.0876758 -0.00656873 0)
(-0.085365 -0.00680462 0)
(-0.0829757 -0.00703497 0)
(-0.0805101 -0.00725845 0)
(-0.077971 -0.00747363 0)
(-0.0753614 -0.00767902 0)
(-0.0726849 -0.00787306 0)
(-0.0699459 -0.0080541 0)
(-0.0671489 -0.00822044 0)
(-0.0642992 -0.00837033 0)
(-0.0614029 -0.00850197 0)
(-0.0584662 -0.0086135 0)
(-0.0554964 -0.00870304 0)
(-0.052501 -0.00876869 0)
(-0.0494884 -0.00880855 0)
(-0.0464675 -0.00882071 0)
(-0.0434478 -0.00880328 0)
(-0.0404393 -0.00875442 0)
(-0.0374528 -0.00867235 0)
(-0.0344993 -0.00855536 0)
(-0.0315905 -0.00840185 0)
(-0.0287385 -0.00821037 0)
(-0.0259557 -0.00797964 0)
(-0.0232549 -0.00770859 0)
(-0.020649 -0.00739645 0)
(-0.0181511 -0.00704276 0)
(-0.015774 -0.00664753 0)
(-0.0135306 -0.00621128 0)
(-0.0114332 -0.00573521 0)
(-0.00949331 -0.00522139 0)
(-0.00772169 -0.004673 0)
(-0.00612766 -0.00409464 0)
(-0.00471884 -0.00349277 0)
(-0.00350059 -0.00287626 0)
(-0.00247548 -0.00225713 0)
(-0.00164261 -0.00165151 0)
(-0.000996936 -0.0010809 0)
(-0.000528352 -0.000573811 0)
(-0.000220677 -0.000167387 0)
(-5.27529e-05 9.02729e-05 0)
(-4.3435e-07 0.00013272 0)
(-7.72327e-06 -9.57899e-05 0)
(-8.99873e-05 2.18329e-05 0)
(-0.000311404 0.000359955 0)
(-0.000684129 0.000853185 0)
(-0.00122223 0.0014529 0)
(-0.00193796 0.00212064 0)
(-0.00283866 0.00282624 0)
(-0.00392753 0.0035464 0)
(-0.00520433 0.00426329 0)
(-0.00666597 0.00496335 0)
(-0.00830692 0.00563649 0)
(-0.0101197 0.00627527 0)
(-0.0120953 0.00687437 0)
(-0.0142234 0.00743017 0)
(-0.0164931 0.00794035 0)
(-0.0188926 0.00840364 0)
(-0.0214099 0.00881959 0)
(-0.0240329 0.0091884 0)
(-0.0267494 0.00951079 0)
(-0.0295472 0.00978788 0)
(-0.0324145 0.0100211 0)
(-0.0353399 0.0102122 0)
(-0.0383122 0.0103629 0)
(-0.0413207 0.0104754 0)
(-0.0443553 0.0105516 0)
(-0.0474063 0.0105938 0)
(-0.0504646 0.010604 0)
(-0.0535217 0.0105846 0)
(-0.0565696 0.0105377 0)
(-0.0596009 0.0104655 0)
(-0.0626088 0.01037 0)
(-0.0655869 0.0102534 0)
(-0.0685296 0.0101176 0)
(-0.0714317 0.00996459 0)
(-0.0742885 0.00979618 0)
(-0.0770959 0.00961414 0)
(-0.0798501 0.00942017 0)
(-0.0825479 0.00921586 0)
(-0.0851865 0.00900272 0)
(-0.0877635 0.00878215 0)
(-0.0902769 0.00855549 0)
(-0.092725 0.00832397 0)
(-0.0951065 0.00808873 0)
(-0.0974205 0.00785083 0)
(-0.0996661 0.00761124 0)
(-0.101843 0.00737085 0)
(-0.103951 0.00713046 0)
(-0.10599 0.00689079 0)
(-0.10796 0.00665251 0)
(-0.109862 0.00641619 0)
(-0.111697 0.00618233 0)
(-0.113464 0.00595138 0)
(-0.115165 0.00572371 0)
(-0.1168 0.00549966 0)
(-0.118371 0.00527946 0)
(-0.119879 0.00506335 0)
(-0.121325 0.00485146 0)
(-0.122709 0.00464391 0)
(-0.124034 0.00444075 0)
(-0.1253 0.00424202 0)
(-0.126509 0.00404769 0)
(-0.127662 0.0038577 0)
(-0.128759 0.00367196 0)
(-0.129803 0.00349035 0)
(-0.130794 0.00331271 0)
(-0.131733 0.00313886 0)
(-0.132622 0.0029686 0)
(-0.133461 0.00280168 0)
(-0.134251 0.00263786 0)
(-0.134994 0.00247685 0)
(-0.135689 0.00231837 0)
(-0.136337 0.0021621 0)
(-0.136939 0.00200771 0)
(-0.137496 0.00185486 0)
(-0.138008 0.0017032 0)
(-0.138475 0.00155236 0)
(-0.138897 0.00140195 0)
(-0.139275 0.0012516 0)
(-0.139607 0.00110091 0)
(-0.139895 0.000949481 0)
(-0.140138 0.000796905 0)
(-0.140336 0.000642775 0)
(-0.140487 0.000486679 0)
(-0.140592 0.000328205 0)
(-0.140649 0.000166944 0)
(-0.140658 2.48598e-06 0)
(-0.140618 -0.000165572 0)
(-0.140528 -0.000337629 0)
(-0.140387 -0.000514074 0)
(-0.140193 -0.000695287 0)
(-0.139945 -0.000881636 0)
(-0.139641 -0.00107347 0)
(-0.139281 -0.00127114 0)
(-0.138862 -0.00147494 0)
(-0.138382 -0.00168518 0)
(-0.13784 -0.00190213 0)
(-0.137234 -0.00212601 0)
(-0.136561 -0.00235705 0)
(-0.135821 -0.00259542 0)
(-0.135011 -0.00284124 0)
(-0.134128 -0.00309462 0)
(-0.133171 -0.00335558 0)
(-0.132138 -0.00362414 0)
(-0.131026 -0.00390022 0)
(-0.129834 -0.00418371 0)
(-0.12856 -0.00447442 0)
(-0.127201 -0.0047721 0)
(-0.125756 -0.00507643 0)
(-0.124224 -0.005387 0)
(-0.122602 -0.00570334 0)
(-0.120889 -0.00602487 0)
(-0.119084 -0.00635093 0)
(-0.117186 -0.00668078 0)
(-0.115193 -0.00701357 0)
(-0.113107 -0.00734834 0)
(-0.110925 -0.00768405 0)
(-0.108649 -0.00801953 0)
(-0.106278 -0.00835351 0)
(-0.103813 -0.00868462 0)
(-0.101255 -0.00901137 0)
(-0.0986071 -0.00933217 0)
(-0.0958696 -0.00964529 0)
(-0.0930457 -0.00994893 0)
(-0.0901382 -0.0102412 0)
(-0.0871508 -0.01052 0)
(-0.0840877 -0.0107832 0)
(-0.0809536 -0.0110287 0)
(-0.0777538 -0.0112541 0)
(-0.0744943 -0.0114571 0)
(-0.0711818 -0.0116353 0)