/*--------------------------------*- C++ -*----------------------------------*\
  =========                 |
  \\      /  F ield         | OpenFOAM: The Open Source CFD Toolbox
   \\    /   O peration     | Website:  https://openfoam.org
    \\  /    A nd           | Version:  7
     \\/     M anipulation  |
\*---------------------------------------------------------------------------*/
FoamFile
{
    version     2.0;
    format      ascii;
    class       surfaceScalarField;
    location    "0.4";
    object      phi;
}
// * * * * * * * * * * * * * * * * * * * * * * * * * * * * * * * * * * * * * //

dimensions      [0 3 -1 0 0 0 0];

internalField   nonuniform List<scalar> 
101920
(
-2.50241e-13
4.01471e-14
-5.67896e-13
3.18121e-13
-9.68245e-13
4.01408e-13
-1.30749e-12
3.40682e-13
-1.50595e-12
2.0033e-13
-1.52014e-12
1.5149e-14
-1.32761e-12
-1.93424e-13
-9.17504e-13
-4.11721e-13
-2.86598e-13
-6.31713e-13
5.62223e-13
-8.48767e-13
1.62206e-12
-1.05989e-12
2.88436e-12
-1.26281e-12
4.33989e-12
-1.456e-12
5.97847e-12
-1.63865e-12
7.78916e-12
-1.81042e-12
9.761e-12
-1.97123e-12
1.18833e-11
-2.12121e-12
1.41453e-11
-2.26062e-12
1.65359e-11
-2.38966e-12
1.90444e-11
-2.50831e-12
2.16604e-11
-2.61649e-12
2.4374e-11
-2.7143e-12
2.71758e-11
-2.80209e-12
3.00563e-11
-2.88036e-12
3.30064e-11
-2.94966e-12
3.60172e-11
-3.01038e-12
3.90802e-11
-3.06279e-12
4.21873e-11
-3.10711e-12
4.53307e-11
-3.14355e-12
4.85033e-11
-3.17247e-12
5.1698e-11
-3.19425e-12
5.49081e-11
-3.20933e-12
5.81269e-11
-3.21804e-12
6.13483e-11
-3.22065e-12
6.45662e-11
-3.21737e-12
6.77749e-11
-3.2084e-12
7.0969e-11
-3.19395e-12
7.41433e-11
-3.17426e-12
7.72931e-11
-3.14961e-12
8.04137e-11
-3.1203e-12
8.35008e-11
-3.0866e-12
8.65503e-11
-3.0488e-12
8.95581e-11
-3.00715e-12
9.25204e-11
-2.96183e-12
9.54338e-11
-2.913e-12
9.82949e-11
-2.86081e-12
1.01101e-10
-2.80545e-12
1.03848e-10
-2.74712e-12
1.06534e-10
-2.686e-12
1.09156e-10
-2.62227e-12
1.11712e-10
-2.55605e-12
1.14199e-10
-2.48744e-12
1.16616e-10
-2.41656e-12
1.18959e-10
-2.34357e-12
1.21228e-10
-2.26864e-12
1.23421e-10
-2.19193e-12
1.25535e-10
-2.11359e-12
1.27569e-10
-2.03374e-12
1.29522e-10
-1.95248e-12
1.31392e-10
-1.86989e-12
1.33178e-10
-1.78604e-12
1.34879e-10
-1.70099e-12
1.36494e-10
-1.61484e-12
1.38022e-10
-1.52769e-12
1.39462e-10
-1.43966e-12
1.40813e-10
-1.3508e-12
1.42075e-10
-1.26115e-12
1.43246e-10
-1.17078e-12
1.44325e-10
-1.07973e-12
1.45314e-10
-9.88113e-13
1.4621e-10
-8.95998e-13
1.47013e-10
-8.03447e-13
1.47724e-10
-7.10501e-13
1.48341e-10
-6.17196e-13
1.48865e-10
-5.23565e-13
1.49294e-10
-4.29651e-13
1.4963e-10
-3.35505e-13
1.49871e-10
-2.41178e-13
1.50018e-10
-1.46713e-13
1.5007e-10
-5.21478e-14
1.50028e-10
4.24824e-14
1.49891e-10
1.3713e-13
1.49659e-10
2.31735e-13
1.49333e-10
3.26234e-13
1.48913e-10
4.20575e-13
1.48398e-10
5.14722e-13
1.4779e-10
6.0865e-13
1.47087e-10
7.02326e-13
1.46292e-10
7.957e-13
1.45403e-10
8.88706e-13
1.44422e-10
9.81273e-13
1.43349e-10
1.07333e-12
1.42184e-10
1.16483e-12
1.40929e-10
1.25571e-12
1.39583e-10
1.34591e-12
1.38147e-10
1.43536e-12
1.36623e-10
1.524e-12
1.35011e-10
1.61173e-12
1.33313e-10
1.69848e-12
1.31529e-10
1.78417e-12
1.2966e-10
1.86875e-12
1.27708e-10
1.9521e-12
1.25674e-10
2.03413e-12
1.23559e-10
2.1147e-12
1.21366e-10
2.19366e-12
1.19095e-10
2.27091e-12
1.16749e-10
2.34632e-12
1.14329e-10
2.41979e-12
1.11838e-10
2.4912e-12
1.09277e-10
2.56042e-12
1.0665e-10
2.62729e-12
1.03958e-10
2.69165e-12
1.01205e-10
2.75333e-12
9.83929e-11
2.81216e-12
9.55248e-11
2.86797e-12
9.26041e-11
2.92061e-12
8.96342e-11
2.96987e-12
8.66186e-11
3.01557e-12
8.35612e-11
3.05747e-12
8.04659e-11
3.09535e-12
7.7337e-11
3.12898e-12
7.41789e-11
3.15815e-12
7.09962e-11
3.18268e-12
6.77939e-11
3.2023e-12
6.45772e-11
3.21672e-12
6.13515e-11
3.22564e-12
5.81226e-11
3.22883e-12
5.48962e-11
3.22606e-12
5.16788e-11
3.2171e-12
4.84768e-11
3.20167e-12
4.52973e-11
3.17941e-12
4.21474e-11
3.14994e-12
3.90346e-11
3.1129e-12
3.59667e-11
3.06799e-12
3.29516e-11
3.01494e-12
2.9998e-11
2.95349e-12
2.71145e-11
2.88333e-12
2.43103e-11
2.80411e-12
2.15948e-11
2.71546e-12
1.89778e-11
2.61705e-12
1.64692e-11
2.50859e-12
1.40794e-11
2.38982e-12
1.18189e-11
2.26051e-12
9.69842e-12
2.12047e-12
7.72905e-12
1.96952e-12
5.92175e-12
1.80754e-12
4.28751e-12
1.63451e-12
2.837e-12
1.45058e-12
1.58034e-12
1.25624e-12
5.26754e-13
1.05259e-12
-3.15785e-13
8.41356e-13
-9.40928e-13
6.24804e-13
-1.34496e-12
4.05458e-13
-1.52913e-12
1.86719e-13
-1.50388e-12
-2.45546e-14
-1.29446e-12
-2.13649e-13
-9.45556e-13
-3.55155e-13
-5.28393e-13
-4.15258e-13
-1.578e-13
-3.5041e-13
-1.29372e-13
-4.24867e-13
4.6564e-13
-1.09631e-12
9.89561e-13
-1.76021e-12
1.06405e-12
-2.21181e-12
7.90978e-13
-2.2972e-12
2.85682e-13
-1.91459e-12
-3.66307e-13
-1.00237e-12
-1.10492e-12
4.73494e-13
-1.88805e-12
2.52822e-12
-2.68676e-12
5.16194e-12
-3.48198e-12
8.36417e-12
-4.26109e-12
1.21177e-11
-5.01541e-12
1.6401e-11
-5.7387e-12
2.11897e-11
-6.42681e-12
2.64566e-11
-7.07734e-12
3.21736e-11
-7.68889e-12
3.83125e-11
-8.26078e-12
4.48445e-11
-8.7929e-12
5.17408e-11
-9.28557e-12
5.89724e-11
-9.73925e-12
6.65108e-11
-1.01544e-11
7.43285e-11
-1.05317e-11
8.23987e-11
-1.0872e-11
9.06951e-11
-1.11765e-11
9.91924e-11
-1.14466e-11
1.07866e-10
-1.16834e-11
1.16692e-10
-1.18883e-11
1.25648e-10
-1.20622e-11
1.34711e-10
-1.22063e-11
1.4386e-10
-1.23216e-11
1.53075e-10
-1.24095e-11
1.62337e-10
-1.2471e-11
1.71627e-10
-1.25073e-11
1.80927e-10
-1.25197e-11
1.90219e-10
-1.2509e-11
1.99488e-10
-1.24764e-11
2.08718e-10
-1.24228e-11
2.17894e-10
-1.23491e-11
2.27001e-10
-1.22563e-11
2.36026e-10
-1.21454e-11
2.44957e-10
-1.20172e-11
2.53782e-10
-1.18728e-11
2.62488e-10
-1.17129e-11
2.71065e-10
-1.15384e-11
2.79502e-10
-1.13501e-11
2.8779e-10
-1.11486e-11
2.9592e-10
-1.09347e-11
3.03882e-10
-1.0709e-11
3.11668e-10
-1.04723e-11
3.19271e-10
-1.02252e-11
3.26683e-10
-9.96829e-12
3.33898e-10
-9.70211e-12
3.40909e-10
-9.42718e-12
3.4771e-10
-9.14405e-12
3.54294e-10
-8.85325e-12
3.60658e-10
-8.5553e-12
3.66796e-10
-8.25072e-12
3.72702e-10
-7.94e-12
3.78374e-10
-7.62354e-12
3.83806e-10
-7.30173e-12
3.88996e-10
-6.97492e-12
3.93939e-10
-6.64344e-12
3.98632e-10
-6.30762e-12
4.03073e-10
-5.96779e-12
4.07258e-10
-5.62431e-12
4.11185e-10
-5.27749e-12
4.14852e-10
-4.92758e-12
4.18256e-10
-4.57483e-12
4.21396e-10
-4.21948e-12
4.2427e-10
-3.8618e-12
4.26876e-10
-3.50203e-12
4.29213e-10
-3.14043e-12
4.3128e-10
-2.77719e-12
4.33076e-10
-2.41249e-12
4.34599e-10
-2.0465e-12
4.35849e-10
-1.67942e-12
4.36826e-10
-1.31142e-12
4.37528e-10
-9.42707e-13
4.37955e-10
-5.73476e-13
4.38107e-10
-2.03896e-13
4.37984e-10
1.65871e-13
4.37585e-10
5.35661e-13
4.36912e-10
9.05292e-13
4.35964e-10
1.27457e-12
4.34741e-10
1.64329e-12
4.33245e-10
2.01128e-12
4.31475e-10
2.37836e-12
4.29433e-10
2.74436e-12
4.2712e-10
3.10908e-12
4.24537e-10
3.4723e-12
4.21684e-10
3.83379e-12
4.18564e-10
4.19329e-12
4.15179e-10
4.55056e-12
4.11529e-10
4.90535e-12
4.07617e-10
5.25743e-12
4.03446e-10
5.60652e-12
3.99018e-10
5.95234e-12
3.94335e-10
6.29456e-12
3.894e-10
6.63286e-12
3.84218e-10
6.96691e-12
3.7879e-10
7.29636e-12
3.73122e-10
7.62084e-12
3.67216e-10
7.93996e-12
3.61077e-10
8.25329e-12
3.54711e-10
8.56035e-12
3.48121e-10
8.86068e-12
3.41314e-10
9.1538e-12
3.34294e-10
9.43922e-12
3.27069e-10
9.71645e-12
3.19644e-10
9.98493e-12
3.12027e-10
1.02441e-11
3.04225e-10
1.04933e-11
2.96247e-10
1.0732e-11
2.88099e-10
1.09595e-11
2.79792e-10
1.11751e-11
2.71334e-10
1.13782e-11
2.62736e-10
1.15679e-11
2.54008e-10
1.17436e-11
2.45161e-10
1.19044e-11
2.36207e-10
1.20495e-11
2.27158e-10
1.2178e-11
2.18027e-10
1.22891e-11
2.08827e-10
1.23819e-11
1.99574e-10
1.24556e-11
1.90282e-10
1.2509e-11
1.80966e-10
1.25412e-11
1.71644e-10
1.25511e-11
1.62333e-10
1.25377e-11
1.53049e-10
1.25001e-11
1.43813e-10
1.24371e-11
1.34645e-10
1.23477e-11
1.25563e-10
1.22307e-11
1.16591e-10
1.20848e-11
1.0775e-10
1.19088e-11
9.90635e-11
1.17017e-11
9.05547e-11
1.14622e-11
8.22486e-11
1.11894e-11
7.41707e-11
1.0882e-11
6.63473e-11
1.0539e-11
5.88054e-11
1.01592e-11
5.15725e-11
9.7416e-12
4.4677e-11
9.28547e-12
3.81474e-11
8.79012e-12
3.20126e-11
8.25513e-12
2.63016e-11
7.68034e-12
2.10429e-11
7.06594e-12
1.62647e-11
6.41264e-12
1.19936e-11
5.72188e-12
8.25416e-12
4.99611e-12
5.06758e-12
4.23932e-12
2.44995e-12
3.45796e-12
4.10485e-13
2.66173e-12
-1.0506e-12
1.86421e-12
-1.94542e-12
1.08314e-12
-2.30537e-12
3.42844e-13
-2.19365e-12
-3.18642e-13
-1.72162e-12
-8.38033e-13
-1.05006e-12
-1.12023e-12
-3.91833e-13
-1.04661e-12
-5.06819e-13
-4.4627e-13
9.13162e-13
-1.13525e-12
1.67875e-12
-1.69635e-12
1.62454e-12
-1.87369e-12
9.66792e-13
-1.47567e-12
-1.13304e-13
-3.67633e-13
-1.4744e-12
1.53828e-12
-3.01073e-12
4.29494e-12
-4.64453e-12
7.92825e-12
-6.31971e-12
1.24435e-11
-7.9966e-12
1.78303e-11
-9.64743e-12
2.4068e-11
-1.12524e-11
3.11277e-11
-1.27975e-11
3.89747e-11
-1.4273e-11
4.757e-11
-1.56726e-11
5.68727e-11
-1.69922e-11
6.68402e-11
-1.82291e-11
7.74291e-11
-1.93825e-11
8.85956e-11
-2.04521e-11
1.00295e-10
-2.14387e-11
1.12485e-10
-2.23433e-11
1.25121e-10
-2.31671e-11
1.38161e-10
-2.39121e-11
1.51565e-10
-2.45801e-11
1.65292e-10
-2.51736e-11
1.79304e-10
-2.5695e-11
1.93563e-10
-2.61466e-11
2.08032e-10
-2.6531e-11
2.22677e-10
-2.68504e-11
2.37463e-10
-2.71074e-11
2.52358e-10
-2.73042e-11
2.6733e-10
-2.74432e-11
2.8235e-10
-2.7527e-11
2.97389e-10
-2.75579e-11
3.12419e-10
-2.75383e-11
3.27414e-10
-2.74702e-11
3.42348e-10
-2.7356e-11
3.57197e-10
-2.71978e-11
3.71939e-10
-2.69975e-11
3.86551e-10
-2.67572e-11
4.01013e-10
-2.64789e-11
4.15305e-10
-2.61644e-11
4.29409e-10
-2.58157e-11
4.43305e-10
-2.54345e-11
4.56978e-10
-2.50225e-11
4.70411e-10
-2.45814e-11
4.83589e-10
-2.41127e-11
4.96498e-10
-2.36179e-11
5.09124e-10
-2.30985e-11
5.21455e-10
-2.25559e-11
5.33478e-10
-2.19915e-11
5.45182e-10
-2.14065e-11
5.56558e-10
-2.08021e-11
5.67593e-10
-2.01795e-11
5.7828e-10
-1.95399e-11
5.8861e-10
-1.88843e-11
5.98573e-10
-1.82139e-11
6.08163e-10
-1.75295e-11
6.17372e-10
-1.68322e-11
6.26194e-10
-1.61229e-11
6.34622e-10
-1.54024e-11
6.4265e-10
-1.46715e-11
6.50274e-10
-1.39308e-11
6.57488e-10
-1.31812e-11
6.64287e-10
-1.24234e-11
6.70668e-10
-1.16579e-11
6.76626e-10
-1.08856e-11
6.82159e-10
-1.01069e-11
6.87262e-10
-9.32239e-12
6.91933e-10
-8.53262e-12
6.96169e-10
-7.73813e-12
6.99968e-10
-6.93943e-12
7.03328e-10
-6.13699e-12
7.06247e-10
-5.33126e-12
7.08724e-10
-4.52266e-12
7.10756e-10
-3.7116e-12
7.12344e-10
-2.8985e-12
7.13485e-10
-2.08379e-12
7.1418e-10
-1.2679e-12
7.14427e-10
-4.5124e-13
7.14228e-10
3.65811e-13
7.1358e-10
1.18287e-12
7.12486e-10
1.99956e-12
7.10945e-10
2.81546e-12
7.08959e-10
3.63017e-12
7.06527e-10
4.44324e-12
7.03651e-10
5.25426e-12
7.00333e-10
6.06279e-12
6.96574e-10
6.8684e-12
6.92376e-10
7.67059e-12
6.87741e-10
8.46887e-12
6.82672e-10
9.2627e-12
6.77171e-10
1.00515e-11
6.71241e-10
1.08348e-11
6.64886e-10
1.1612e-11
6.5811e-10
1.23824e-11
6.50917e-10
1.31454e-11
6.43311e-10
1.39004e-11
6.35298e-10
1.46465e-11
6.26882e-10
1.53831e-11
6.18069e-10
1.61094e-11
6.08865e-10
1.68244e-11
5.99278e-10
1.75274e-11
5.89314e-10
1.82175e-11
5.78981e-10
1.88935e-11
5.68287e-10
1.95546e-11
5.57241e-10
2.01996e-11
5.45853e-10
2.08274e-11
5.34133e-10
2.1437e-11
5.2209e-10
2.2027e-11
5.09738e-10
2.25963e-11
4.97088e-10
2.31435e-11
4.84152e-10
2.36672e-11
4.70946e-10
2.4166e-11
4.57482e-10
2.46384e-11
4.43778e-10
2.50829e-11
4.29848e-10
2.54979e-11
4.15709e-10
2.58816e-11
4.01381e-10
2.62325e-11
3.86882e-10
2.65486e-11
3.72232e-10
2.68281e-11
3.57453e-10
2.7069e-11
3.42565e-10
2.72696e-11
3.27593e-10
2.74278e-11
3.1256e-10
2.75414e-11
2.97493e-10
2.76085e-11
2.82418e-10
2.76266e-11
2.67362e-10
2.75935e-11
2.52355e-10
2.7507e-11
2.37427e-10
2.73649e-11
2.22609e-10
2.71648e-11
2.07935e-10
2.69044e-11
1.93438e-10
2.6581e-11
1.79155e-10
2.61923e-11
1.6512e-10
2.57358e-11
1.51374e-10
2.52092e-11
1.37953e-10
2.461e-11
1.24899e-10
2.39361e-11
1.12253e-10
2.31854e-11
1.00056e-10
2.23557e-11
8.83528e-11
2.14454e-11
7.71856e-11
2.04528e-11
6.65988e-11
1.93771e-11
5.66363e-11
1.82177e-11
4.73418e-11
1.69748e-11
3.87577e-11
1.56497e-11
3.09252e-11
1.42448e-11
2.38825e-11
1.27643e-11
1.76642e-11
1.12148e-11
1.22991e-11
9.60551e-12
7.80766e-12
7.95036e-12
4.19837e-12
6.26974e-12
1.4641e-12
4.59328e-12
-4.21242e-13
2.96211e-12
-1.50717e-12
1.43017e-12
-1.8772e-12
6.90658e-14
-1.67147e-12
-1.01985e-12
-1.09934e-12
-1.68843e-12
-4.34094e-13
-1.73866e-12
-9.41893e-13
-3.62593e-13
1.27631e-12
-8.37489e-13
2.15354e-12
-1.02467e-12
1.81145e-12
-6.42678e-13
5.84295e-13
5.177e-13
-1.27427e-12
2.60719e-12
-3.56458e-12
5.72896e-12
-6.13274e-12
9.94742e-12
-8.8627e-12
1.52964e-11
-1.16679e-11
2.17853e-11
-1.44849e-11
2.94053e-11
-1.72669e-11
3.81337e-11
-1.99801e-11
4.7937e-11
-2.25999e-11
5.87736e-11
-2.51089e-11
7.05959e-11
-2.74949e-11
8.33528e-11
-2.97496e-11
9.69907e-11
-3.18678e-11
1.11454e-10
-3.38465e-11
1.26687e-10
-3.56849e-11
1.42632e-10
-3.73833e-11
1.59232e-10
-3.8943e-11
1.76432e-10
-4.0366e-11
1.94175e-10
-4.16548e-11
2.12407e-10
-4.28125e-11
2.31077e-10
-4.38427e-11
2.50131e-10
-4.47489e-11
2.6952e-10
-4.55353e-11
2.89195e-10
-4.62057e-11
3.09109e-10
-4.67642e-11
3.29216e-10
-4.72147e-11
3.49474e-10
-4.75613e-11
3.69839e-10
-4.7808e-11
3.90271e-10
-4.79587e-11
4.10731e-10
-4.80176e-11
4.31182e-10
-4.79884e-11
4.51587e-10
-4.78751e-11
4.71914e-10
-4.76815e-11
4.92128e-10
-4.74111e-11
5.12198e-10
-4.70675e-11
5.32096e-10
-4.66541e-11
5.51792e-10
-4.61743e-11
5.71259e-10
-4.56313e-11
5.90471e-10
-4.50282e-11
6.09405e-10
-4.43682e-11
6.28037e-10
-4.36543e-11
6.46346e-10
-4.28892e-11
6.64309e-10
-4.20757e-11
6.81907e-10
-4.12165e-11
6.99123e-10
-4.03141e-11
7.15938e-10
-3.93709e-11
7.32336e-10
-3.83892e-11
7.48301e-10
-3.73714e-11
7.63819e-10
-3.63195e-11
7.78875e-10
-3.52357e-11
7.93457e-10
-3.41218e-11
8.07553e-10
-3.29797e-11
8.21151e-10
-3.18114e-11
8.3424e-10
-3.06185e-11
8.46811e-10
-2.94028e-11
8.58854e-10
-2.81657e-11
8.70361e-10
-2.69087e-11
8.81323e-10
-2.56333e-11
8.91734e-10
-2.43408e-11
9.01585e-10
-2.30324e-11
9.10872e-10
-2.17094e-11
9.19587e-10
-2.03729e-11
9.27726e-10
-1.90241e-11
9.35283e-10
-1.76641e-11
9.42255e-10
-1.62937e-11
9.48636e-10
-1.49141e-11
9.54424e-10
-1.3526e-11
9.59615e-10
-1.21303e-11
9.64206e-10
-1.07281e-11
9.68195e-10
-9.31989e-12
9.7158e-10
-7.90664e-12
9.74357e-10
-6.48905e-12
9.76527e-10
-5.06784e-12
9.78087e-10
-3.64378e-12
9.79037e-10
-2.2176e-12
9.79376e-10
-7.90043e-13
9.79104e-10
6.38196e-13
9.78221e-10
2.06643e-12
9.76726e-10
3.49396e-12
9.74622e-10
4.92009e-12
9.71908e-10
6.3441e-12
9.68586e-10
7.76521e-12
9.64658e-10
9.18267e-12
9.60126e-10
1.05957e-11
9.54991e-10
1.20035e-11
9.49256e-10
1.34051e-11
9.42926e-10
1.47998e-11
9.36002e-10
1.61866e-11
9.28489e-10
1.75646e-11
9.20391e-10
1.89327e-11
9.11713e-10
2.02899e-11
9.0246e-10
2.16351e-11
8.92638e-10
2.29672e-11
8.82253e-10
2.4285e-11
8.71313e-10
2.55872e-11
8.59823e-10
2.68724e-11
8.47794e-10
2.81394e-11
8.35232e-10
2.93865e-11
8.22147e-10
3.06122e-11
8.08549e-10
3.18151e-11
7.9445e-10
3.29933e-11
7.79859e-10
3.4145e-11
7.6479e-10
3.52685e-11
7.49256e-10
3.63617e-11
7.3327e-10
3.74227e-11
7.16848e-10
3.84494e-11
7.00005e-10
3.94395e-11
6.82757e-10
4.03907e-11
6.65124e-10
4.13007e-11
6.47123e-10
4.2167e-11
6.28774e-10
4.29869e-11
6.10099e-10
4.37578e-11
5.9112e-10
4.44769e-11
5.7186e-10
4.51413e-11
5.52345e-10
4.57482e-11
5.32599e-10
4.62943e-11
5.12651e-10
4.67764e-11
4.92528e-10
4.71914e-11
4.72263e-10
4.75357e-11
4.51884e-10
4.78059e-11
4.31427e-10
4.79987e-11
4.10925e-10
4.81102e-11
3.90415e-10
4.81368e-11
3.69934e-10
4.80745e-11
3.49521e-10
4.79195e-11
3.29218e-10
4.76678e-11
3.09067e-10
4.73157e-11
2.89112e-10
4.6859e-11
2.69399e-10
4.62938e-11
2.49975e-10
4.56159e-11
2.30889e-10
4.48214e-11
2.12192e-10
4.39063e-11
1.93936e-10
4.28668e-11
1.76173e-10
4.16994e-11
1.58957e-10
4.04007e-11
1.42346e-10
3.89677e-11
1.26393e-10
3.73978e-11
1.11157e-10
3.5689e-11
9.66947e-11
3.38401e-11
8.30614e-11
3.1851e-11
7.03131e-11
2.9723e-11
5.85036e-11
2.7459e-11
4.76836e-11
2.50644e-11
3.79002e-11
2.25473e-11
2.91944e-11
1.99202e-11
2.15996e-11
1.72007e-11
1.51388e-11
1.44131e-11
9.82035e-12
1.15908e-11
5.63216e-12
8.78102e-12
2.53659e-12
6.04941e-12
4.68117e-13
3.48514e-12
-6.70713e-13
1.20306e-12
-1.0265e-12
-6.49347e-13
-8.19038e-13
-1.87539e-12
-3.54306e-13
-2.20962e-12
-1.30089e-12
-2.12414e-13
1.48953e-12
-3.18076e-13
2.25881e-12
6.62035e-14
1.42727e-12
1.22078e-12
-5.69953e-13
3.35628e-12
-3.40988e-12
6.62744e-12
-6.83616e-12
1.11425e-11
-1.06481e-11
1.69713e-11
-1.46911e-11
2.41514e-11
-1.88475e-11
3.26949e-11
-2.30279e-11
4.25935e-11
-2.71652e-11
5.38233e-11
-3.12092e-11
6.63474e-11
-3.51231e-11
8.01191e-11
-3.88799e-11
9.50845e-11
-4.24601e-11
1.11185e-10
-4.585e-11
1.28357e-10
-4.90405e-11
1.46536e-10
-5.20263e-11
1.65656e-10
-5.48046e-11
1.85648e-10
-5.73753e-11
2.06444e-10
-5.97393e-11
2.27978e-10
-6.18992e-11
2.50182e-10
-6.38582e-11
2.7299e-10
-6.56204e-11
2.96338e-10
-6.71905e-11
3.20163e-10
-6.85738e-11
3.44403e-10
-6.97756e-11
3.69e-10
-7.08018e-11
3.93894e-10
-7.16583e-11
4.19031e-10
-7.23508e-11
4.44355e-10
-7.28853e-11
4.69815e-10
-7.32677e-11
4.95361e-10
-7.3504e-11
5.20944e-10
-7.35999e-11
5.46518e-10
-7.35614e-11
5.72037e-10
-7.33943e-11
5.97461e-10
-7.31041e-11
6.22746e-10
-7.26964e-11
6.47856e-10
-7.21764e-11
6.72752e-10
-7.15494e-11
6.97398e-10
-7.08204e-11
7.21762e-10
-6.99944e-11
7.4581e-10
-6.9076e-11
7.69512e-10
-6.80701e-11
7.92839e-10
-6.69811e-11
8.15763e-10
-6.58133e-11
8.38259e-10
-6.45709e-11
8.603e-10
-6.32579e-11
8.81864e-10
-6.18783e-11
9.02929e-10
-6.04356e-11
9.23474e-10
-5.89337e-11
9.43478e-10
-5.73758e-11
9.62924e-10
-5.57652e-11
9.81794e-10
-5.41052e-11
1.00007e-09
-5.23987e-11
1.01774e-09
-5.06486e-11
1.03479e-09
-4.88579e-11
1.0512e-09
-4.7029e-11
1.06696e-09
-4.51646e-11
1.08206e-09
-4.3267e-11
1.09649e-09
-4.13386e-11
1.11024e-09
-3.93815e-11
1.1233e-09
-3.73977e-11
1.13566e-09
-3.53893e-11
1.14731e-09
-3.33582e-11
1.15824e-09
-3.13061e-11
1.16845e-09
-2.92349e-11
1.17793e-09
-2.7146e-11
1.18668e-09
-2.50411e-11
1.19469e-09
-2.29217e-11
1.20195e-09
-2.07891e-11
1.20846e-09
-1.86448e-11
1.21423e-09
-1.649e-11
1.21923e-09
-1.43261e-11
1.22348e-09
-1.21542e-11
1.22697e-09
-9.97557e-12
1.22969e-09
-7.79132e-12
1.23165e-09
-5.60261e-12
1.23284e-09
-3.41059e-12
1.23327e-09
-1.2164e-12
1.23293e-09
9.78863e-13
1.23182e-09
3.1741e-12
1.22995e-09
5.36822e-12
1.22731e-09
7.56014e-12
1.2239e-09
9.7487e-12
1.21974e-09
1.19328e-11
1.21481e-09
1.41111e-11
1.20912e-09
1.62825e-11
1.20268e-09
1.84456e-11
1.19549e-09
2.05993e-11
1.18754e-09
2.2742e-11
1.17886e-09
2.48724e-11
1.16943e-09
2.6989e-11
1.15928e-09
2.90902e-11
1.14839e-09
3.11745e-11
1.13679e-09
3.32401e-11
1.12447e-09
3.52853e-11
1.11144e-09
3.73082e-11
1.09773e-09
3.93068e-11
1.08332e-09
4.12791e-11
1.06824e-09
4.32228e-11
1.05249e-09
4.51358e-11
1.03608e-09
4.70157e-11
1.01904e-09
4.886e-11
1.00137e-09
5.0666e-11
9.83079e-10
5.24312e-11
9.64195e-10
5.41525e-11
9.4473e-10
5.58271e-11
9.24701e-10
5.74517e-11
9.04127e-10
5.90232e-11
8.83028e-10
6.05382e-11
8.61425e-10
6.19932e-11
8.39341e-10
6.33846e-11
8.168e-10
6.47085e-11
7.93826e-10
6.59609e-11
7.70446e-10
6.71377e-11
7.46688e-10
6.82348e-11
7.22581e-10
6.92477e-11
6.98157e-10
7.0172e-11
6.73449e-10
7.1003e-11
6.48489e-10
7.17357e-11
6.23315e-10
7.23653e-11
5.97965e-10
7.28866e-11
5.72476e-10
7.32943e-11
5.46891e-10
7.35833e-11
5.21253e-10
7.3748e-11
4.95607e-10
7.37828e-11
4.7e-10
7.3682e-11
4.44479e-10
7.34397e-11
4.19097e-10
7.30501e-11
3.93905e-10
7.25073e-11
3.68959e-10
7.18055e-11
3.44313e-10
7.09388e-11
3.20028e-10
6.99013e-11
2.96162e-10
6.86872e-11
2.72777e-10
6.72909e-11
2.49937e-10
6.57069e-11
2.27707e-10
6.39303e-11
2.06151e-10
6.19565e-11
1.85337e-10
5.97814e-11
1.65333e-10
5.74019e-11
1.46207e-10
5.48156e-11
1.28026e-10
5.20216e-11
1.10857e-10
4.90205e-11
9.47645e-11
4.58153e-11
7.98118e-11
4.24116e-11
6.60573e-11
3.88186e-11
5.35543e-11
3.50499e-11
4.23489e-11
3.1125e-11
3.24773e-11
2.70714e-11
2.39636e-11
2.29267e-11
1.68162e-11
1.87411e-11
1.10221e-11
1.45807e-11
6.54017e-12
1.05345e-11
3.29532e-12
6.72334e-12
1.17927e-12
3.30578e-12
4.39911e-14
4.81468e-13
-3.18813e-13
-1.49949e-12
-2.09446e-13
-2.31301e-12
-1.51175e-12
-2.3969e-14
1.51426e-12
3.41011e-13
1.89356e-12
1.43421e-12
3.33741e-13
3.51569e-12
-2.65153e-12
6.78472e-12
-6.67866e-12
1.13895e-11
-1.14409e-11
1.74356e-11
-1.66941e-11
2.49919e-11
-2.22471e-11
3.40963e-11
-2.79513e-11
4.47607e-11
-3.36918e-11
5.69762e-11
-3.93802e-11
7.07169e-11
-4.49494e-11
8.5943e-11
-5.03487e-11
1.02604e-10
-5.55404e-11
1.20641e-10
-6.04965e-11
1.39988e-10
-6.51972e-11
1.60576e-10
-6.96285e-11
1.82331e-10
-7.37817e-11
2.05178e-10
-7.76521e-11
2.2904e-10
-8.12378e-11
2.53841e-10
-8.45395e-11
2.79502e-10
-8.75598e-11
3.05947e-10
-9.03025e-11
3.33099e-10
-9.27727e-11
3.60885e-10
-9.49763e-11
3.89231e-10
-9.69199e-11
4.18066e-10
-9.86108e-11
4.47321e-10
-1.00056e-10
4.76927e-10
-1.01265e-10
5.0682e-10
-1.02243e-10
5.36936e-10
-1.03001e-10
5.67213e-10
-1.03545e-10
5.97593e-10
-1.03883e-10
6.28018e-10
-1.04025e-10
6.58434e-10
-1.03977e-10
6.88788e-10
-1.03748e-10
7.19029e-10
-1.03345e-10
7.49109e-10
-1.02776e-10
7.78982e-10
-1.02049e-10
8.08604e-10
-1.01171e-10
8.37932e-10
-1.00148e-10
8.66927e-10
-9.89881e-11
8.95548e-10
-9.76975e-11
9.23761e-10
-9.62827e-11
9.51531e-10
-9.475e-11
9.78823e-10
-9.31056e-11
1.00561e-09
-9.13553e-11
1.03185e-09
-8.95048e-11
1.05754e-09
-8.75594e-11
1.08262e-09
-8.55246e-11
1.1071e-09
-8.34052e-11
1.13093e-09
-8.12062e-11
1.15409e-09
-7.89323e-11
1.17658e-09
-7.65878e-11
1.19836e-09
-7.41772e-11
1.21941e-09
-7.17044e-11
1.23973e-09
-6.91736e-11
1.25929e-09
-6.65883e-11
1.27808e-09
-6.39522e-11
1.29608e-09
-6.12688e-11
1.31328e-09
-5.85412e-11
1.32967e-09
-5.57725e-11
1.34524e-09
-5.29657e-11
1.35998e-09
-5.01236e-11
1.37387e-09
-4.7249e-11
1.38691e-09
-4.43444e-11
1.39908e-09
-4.14122e-11
1.41039e-09
-3.84548e-11
1.42082e-09
-3.54744e-11
1.43038e-09
-3.24731e-11
1.43904e-09
-2.9453e-11
1.44681e-09
-2.64159e-11
1.45369e-09
-2.33639e-11
1.45966e-09
-2.02987e-11
1.46473e-09
-1.72221e-11
1.46889e-09
-1.41358e-11
1.47214e-09
-1.10414e-11
1.47448e-09
-7.94066e-12
1.4759e-09
-4.83515e-12
1.47641e-09
-1.72648e-12
1.47601e-09
1.38373e-12
1.47469e-09
4.49391e-12
1.47245e-09
7.60247e-12
1.4693e-09
1.07078e-11
1.46524e-09
1.38083e-11
1.46028e-09
1.69023e-11
1.4544e-09
1.99881e-11
1.44762e-09
2.30639e-11
1.43994e-09
2.61278e-11
1.43136e-09
2.9178e-11
1.42189e-09
3.22126e-11
1.41153e-09
3.52295e-11
1.40029e-09
3.82265e-11
1.38818e-09
4.12015e-11
1.3752e-09
4.41522e-11
1.36137e-09
4.70761e-11
1.34668e-09
4.99707e-11
1.33116e-09
5.28334e-11
1.3148e-09
5.56613e-11
1.29763e-09
5.84515e-11
1.27965e-09
6.1201e-11
1.26088e-09
6.39064e-11
1.24133e-09
6.65645e-11
1.22102e-09
6.91718e-11
1.19996e-09
7.17245e-11
1.17817e-09
7.42188e-11
1.15568e-09
7.66506e-11
1.13249e-09
7.90158e-11
1.10863e-09
8.13098e-11
1.08413e-09
8.35282e-11
1.059e-09
8.56661e-11
1.03327e-09
8.77187e-11
1.00698e-09
8.96808e-11
9.80136e-10
9.1547e-11
9.52785e-10
9.33117e-11
9.24954e-10
9.49691e-11
8.96675e-10
9.65134e-11
8.67985e-10
9.79383e-11
8.38919e-10
9.92377e-11
8.09517e-10
1.00405e-10
7.7982e-10
1.01433e-10
7.4987e-10
1.02315e-10
7.19712e-10
1.03045e-10
6.89392e-10
1.03614e-10
6.58961e-10
1.04015e-10
6.28468e-10
1.04241e-10
5.97966e-10
1.04284e-10
5.67512e-10
1.04136e-10
5.37162e-10
1.03789e-10
5.06976e-10
1.03236e-10
4.77017e-10
1.02467e-10
4.47346e-10
1.01476e-10
4.18032e-10
1.00253e-10
3.89141e-10
9.87919e-11
3.60744e-10
9.70841e-11
3.32912e-10
9.51225e-11
3.0572e-10
9.28999e-11
2.7924e-10
9.04098e-11
2.53551e-10
8.76465e-11
2.28727e-10
8.46051e-11
2.04847e-10
8.12819e-11
1.81989e-10
7.76745e-11
1.60228e-10
7.37827e-11
1.39641e-10
6.96084e-11
1.20299e-10
6.51567e-11
1.02274e-10
6.04368e-11
8.56292e-11
5.54628e-11
7.04238e-11
5.02549e-11
5.67078e-11
4.48408e-11
4.45206e-11
3.92583e-11
3.38871e-11
3.3559e-11
2.48157e-11
2.78114e-11
1.72942e-11
2.21039e-11
1.12841e-11
1.65503e-11
6.71227e-12
1.12989e-11
3.46757e-12
6.54449e-12
1.40288e-12
2.53512e-12
3.27596e-13
-4.24377e-13
-2.68429e-14
-1.95423e-12
-1.5367e-12
1.84897e-13
1.32937e-12
1.08264e-12
9.95492e-13
2.97566e-12
-1.5603e-12
6.09099e-12
-5.76726e-12
1.06062e-11
-1.11936e-11
1.66554e-11
-1.74893e-11
2.43346e-11
-2.43725e-11
3.37068e-11
-3.16187e-11
4.48062e-11
-3.90501e-11
5.76418e-11
-4.6527e-11
7.22023e-11
-5.39405e-11
8.84587e-11
-6.12059e-11
1.06368e-10
-6.82585e-11
1.25877e-10
-7.50489e-11
1.46921e-10
-8.15403e-11
1.69429e-10
-8.77056e-11
1.93327e-10
-9.35257e-11
2.18533e-10
-9.89878e-11
2.44964e-10
-1.04084e-10
2.72538e-10
-1.08811e-10
3.01168e-10
-1.13169e-10
3.30768e-10
-1.1716e-10
3.61253e-10
-1.20787e-10
3.92539e-10
-1.24058e-10
4.24542e-10
-1.26979e-10
4.57179e-10
-1.29558e-10
4.90371e-10
-1.31803e-10
5.2404e-10
-1.33725e-10
5.58109e-10
-1.35334e-10
5.92505e-10
-1.36638e-10
6.27154e-10
-1.3765e-10
6.61988e-10
-1.38378e-10
6.9694e-10
-1.38834e-10
7.31943e-10
-1.39028e-10
7.66937e-10
-1.3897e-10
8.0186e-10
-1.3867e-10
8.36655e-10
-1.3814e-10
8.71267e-10
-1.37388e-10
9.05643e-10
-1.36425e-10
9.39732e-10
-1.35259e-10
9.73485e-10
-1.33901e-10
1.00686e-09
-1.32359e-10
1.0398e-09
-1.30643e-10
1.07228e-09
-1.2876e-10
1.10425e-09
-1.26719e-10
1.13567e-09
-1.24529e-10
1.16651e-09
-1.22196e-10
1.19674e-09
-1.19729e-10
1.22631e-09
-1.17135e-10
1.25521e-09
-1.1442e-10
1.2834e-09
-1.11592e-10
1.31085e-09
-1.08657e-10
1.33754e-09
-1.05621e-10
1.36344e-09
-1.0249e-10
1.38853e-09
-9.92701e-11
1.41279e-09
-9.59665e-11
1.43621e-09
-9.25845e-11
1.45875e-09
-8.91292e-11
1.4804e-09
-8.56053e-11
1.50115e-09
-8.20174e-11
1.52098e-09
-7.83699e-11
1.53987e-09
-7.4667e-11
1.55782e-09
-7.09126e-11
1.57481e-09
-6.71104e-11
1.59082e-09
-6.32643e-11
1.60586e-09
-5.93775e-11
1.6199e-09
-5.54534e-11
1.63294e-09
-5.14952e-11
1.64497e-09
-4.75058e-11
1.65598e-09
-4.34881e-11
1.66598e-09
-3.94449e-11
1.67494e-09
-3.53788e-11
1.68287e-09
-3.12923e-11
1.68976e-09
-2.71879e-11
1.6956e-09
-2.30681e-11
1.7004e-09
-1.89352e-11
1.70415e-09
-1.47913e-11
1.70685e-09
-1.06388e-11
1.7085e-09
-6.47984e-12
1.70909e-09
-2.3166e-12
1.70862e-09
1.84876e-12
1.7071e-09
6.01408e-12
1.70453e-09
1.01772e-11
1.7009e-09
1.43359e-11
1.69622e-09
1.84881e-11
1.69049e-09
2.26314e-11
1.68372e-09
2.67635e-11
1.6759e-09
3.0882e-11
1.66704e-09
3.49844e-11
1.65715e-09
3.90683e-11
1.64623e-09
4.31309e-11
1.63429e-09
4.71695e-11
1.62134e-09
5.11813e-11
1.60738e-09
5.51632e-11
1.59242e-09
5.91121e-11
1.57647e-09
6.30249e-11
1.55954e-09
6.68979e-11
1.54165e-09
7.07278e-11
1.5228e-09
7.45107e-11
1.50301e-09
7.82427e-11
1.48229e-09
8.19196e-11
1.46066e-09
8.55372e-11
1.43813e-09
8.90908e-11
1.41473e-09
9.25758e-11
1.39046e-09
9.59872e-11
1.36536e-09
9.93199e-11
1.33944e-09
1.02569e-10
1.31273e-09
1.05727e-10
1.28525e-09
1.08791e-10
1.25703e-09
1.11752e-10
1.22809e-09
1.14605e-10
1.19846e-09
1.17344e-10
1.16818e-09
1.19961e-10
1.13728e-09
1.22449e-10
1.10579e-09
1.24801e-10
1.07375e-09
1.27009e-10
1.0412e-09
1.29066e-10
1.00817e-09
1.30963e-10
9.74721e-10
1.32691e-10
9.40883e-10
1.34243e-10
9.06707e-10
1.35609e-10
8.72242e-10
1.3678e-10
8.3754e-10
1.37747e-10
8.02654e-10
1.38499e-10
7.67641e-10
1.39029e-10
7.32557e-10
1.39324e-10
6.97465e-10
1.39376e-10
6.62426e-10
1.39174e-10
6.27507e-10
1.38708e-10
5.92775e-10
1.37967e-10
5.58301e-10
1.36941e-10
5.24157e-10
1.3562e-10
4.90416e-10
1.33993e-10
4.57158e-10
1.32051e-10
4.24459e-10
1.29783e-10
3.92401e-10
1.2718e-10
3.61066e-10
1.24235e-10
3.30538e-10
1.20938e-10
3.00901e-10
1.17283e-10
2.72241e-10
1.13265e-10
2.44644e-10
1.08879e-10
2.18195e-10
1.04124e-10
1.92979e-10
9.89993e-11
1.69078e-10
9.35098e-11
1.46572e-10
8.7663e-11
1.25538e-10
8.1472e-11
1.06043e-10
7.49566e-11
8.81524e-11
6.81445e-11
7.19191e-11
6.10731e-11
5.73865e-11
5.37912e-11
4.45826e-11
4.63638e-11
3.35171e-11
3.88765e-11
2.41791e-11
3.14404e-11
1.65351e-11
2.41953e-11
1.05214e-11
1.73177e-11
6.03647e-12
1.10322e-11
2.94114e-12
5.62471e-12
1.0644e-12
1.44792e-12
1.79082e-13
-1.06864e-12
-1.35538e-12
4.03155e-13
9.25609e-13
1.86816e-12
-4.69941e-13
4.61684e-12
-4.30968e-12
8.83507e-12
-9.98586e-12
1.46718e-11
-1.70299e-11
2.2241e-11
-2.50575e-11
3.16242e-11
-3.37547e-11
4.28743e-11
-4.28676e-11
5.6018e-11
-5.21926e-11
7.10588e-11
-6.15671e-11
8.79807e-11
-7.08623e-11
1.06751e-10
-7.99767e-11
1.27323e-10
-8.88313e-11
1.49638e-10
-9.73651e-11
1.73629e-10
-1.05532e-10
1.99221e-10
-1.13297e-10
2.26331e-10
-1.20636e-10
2.54873e-10
-1.2753e-10
2.8476e-10
-1.33971e-10
3.15899e-10
-1.39951e-10
3.48199e-10
-1.45469e-10
3.81566e-10
-1.50527e-10
4.15908e-10
-1.55129e-10
4.51132e-10
-1.59282e-10
4.87148e-10
-1.62994e-10
5.23864e-10
-1.66274e-10
5.61193e-10
-1.69133e-10
5.9905e-10
-1.71582e-10
6.37349e-10
-1.73633e-10
6.7601e-10
-1.75299e-10
7.14952e-10
-1.76591e-10
7.54098e-10
-1.77524e-10
7.93374e-10
-1.78109e-10
8.32708e-10
-1.78361e-10
8.7203e-10
-1.78291e-10
9.11273e-10
-1.77913e-10
9.50372e-10
-1.77239e-10
9.89267e-10
-1.76282e-10
1.0279e-09
-1.75055e-10
1.06621e-09
-1.73568e-10
1.10414e-09
-1.71835e-10
1.14165e-09
-1.69866e-10
1.17868e-09
-1.67673e-10
1.21519e-09
-1.65266e-10
1.25112e-09
-1.62657e-10
1.28645e-09
-1.59855e-10
1.32112e-09
-1.5687e-10
1.35511e-09
-1.53712e-10
1.38836e-09
-1.5039e-10
1.42085e-09
-1.46914e-10
1.45255e-09
-1.43291e-10
1.48343e-09
-1.3953e-10
1.51344e-09
-1.35638e-10
1.54258e-09
-1.31625e-10
1.57081e-09
-1.27496e-10
1.5981e-09
-1.2326e-10
1.62444e-09
-1.18922e-10
1.6498e-09
-1.14489e-10
1.67416e-09
-1.09968e-10
1.69751e-09
-1.05364e-10
1.71982e-09
-1.00683e-10
1.74108e-09
-9.59296e-11
1.76128e-09
-9.11098e-11
1.7804e-09
-8.62282e-11
1.79843e-09
-8.12895e-11
1.81535e-09
-7.62982e-11
1.83115e-09
-7.12584e-11
1.84583e-09
-6.61742e-11
1.85937e-09
-6.10497e-11
1.87177e-09
-5.58884e-11
1.88302e-09
-5.0694e-11
1.89311e-09
-4.54698e-11
1.90204e-09
-4.02191e-11
1.9098e-09
-3.49452e-11
1.91638e-09
-2.96512e-11
1.92179e-09
-2.43401e-11
1.92601e-09
-1.90149e-11
1.92905e-09
-1.36784e-11
1.9309e-09
-8.33361e-12
1.93157e-09
-2.98321e-12
1.93105e-09
2.36995e-12
1.92934e-09
7.72306e-12
1.92645e-09
1.30733e-11
1.92236e-09
1.84179e-11
1.9171e-09
2.37538e-11
1.91065e-09
2.90782e-11
1.90303e-09