/*--------------------------------*- C++ -*----------------------------------*\
  =========                 |
  \\      /  F ield         | OpenFOAM: The Open Source CFD Toolbox
   \\    /   O peration     | Website:  https://openfoam.org
    \\  /    A nd           | Version:  7
     \\/     M anipulation  |
\*---------------------------------------------------------------------------*/
FoamFile
{
    version     2.0;
    format      ascii;
    class       volVectorField;
    location    "0.4";
    object      U;
}
// * * * * * * * * * * * * * * * * * * * * * * * * * * * * * * * * * * * * * //

dimensions      [0 1 -1 0 0 0 0];

internalField   nonuniform List<vector> 
51200
(
(-1.86131e-08 6.95666e-10 0)
(-6.37986e-08 2.10168e-08 0)
(-1.2382e-07 2.91184e-08 0)
(-1.85741e-07 2.71146e-08 0)
(-2.30936e-07 1.98146e-08 0)
(-2.49197e-07 9.89733e-09 0)
(-2.35601e-07 -1.18428e-09 0)
(-1.8769e-07 -1.25847e-08 0)
(-1.04468e-07 -2.387e-08 0)
(1.40253e-08 -3.48362e-08 0)
(1.66945e-07 -4.5366e-08 0)
(3.53014e-07 -5.53706e-08 0)
(5.70785e-07 -6.47916e-08 0)
(8.18688e-07 -7.36104e-08 0)
(1.09502e-06 -8.1835e-08 0)
(1.39803e-06 -8.94803e-08 0)
(1.72596e-06 -9.65715e-08 0)
(2.07711e-06 -1.03137e-07 0)
(2.44973e-06 -1.09197e-07 0)
(2.84206e-06 -1.1475e-07 0)
(3.2524e-06 -1.19786e-07 0)
(3.67914e-06 -1.24308e-07 0)
(4.12074e-06 -1.28337e-07 0)
(4.57568e-06 -1.3191e-07 0)
(5.04247e-06 -1.3506e-07 0)
(5.51967e-06 -1.3781e-07 0)
(6.0059e-06 -1.40174e-07 0)
(6.49981e-06 -1.42157e-07 0)
(7.00014e-06 -1.43771e-07 0)
(7.5057e-06 -1.45031e-07 0)
(8.01535e-06 -1.45961e-07 0)
(8.52799e-06 -1.46587e-07 0)
(9.04256e-06 -1.46926e-07 0)
(9.55802e-06 -1.4699e-07 0)
(1.00734e-05 -1.46787e-07 0)
(1.05877e-05 -1.46323e-07 0)
(1.11002e-05 -1.45607e-07 0)
(1.16098e-05 -1.44648e-07 0)
(1.21159e-05 -1.43461e-07 0)
(1.26177e-05 -1.42063e-07 0)
(1.31145e-05 -1.40468e-07 0)
(1.36056e-05 -1.38692e-07 0)
(1.40904e-05 -1.36746e-07 0)
(1.45681e-05 -1.34638e-07 0)
(1.50383e-05 -1.32375e-07 0)
(1.55004e-05 -1.29961e-07 0)
(1.59539e-05 -1.27405e-07 0)
(1.63982e-05 -1.24717e-07 0)
(1.6833e-05 -1.21906e-07 0)
(1.72577e-05 -1.18982e-07 0)
(1.76721e-05 -1.15947e-07 0)
(1.80756e-05 -1.12805e-07 0)
(1.8468e-05 -1.09559e-07 0)
(1.88489e-05 -1.06219e-07 0)
(1.9218e-05 -1.02792e-07 0)
(1.95749e-05 -9.92878e-08 0)
(1.99195e-05 -9.57139e-08 0)
(2.02514e-05 -9.2076e-08 0)
(2.05704e-05 -8.83786e-08 0)
(2.08763e-05 -8.46243e-08 0)
(2.11689e-05 -8.08146e-08 0)
(2.14479e-05 -7.69517e-08 0)
(2.17133e-05 -7.30402e-08 0)
(2.19648e-05 -6.90862e-08 0)
(2.22023e-05 -6.50951e-08 0)
(2.24256e-05 -6.10693e-08 0)
(2.26346e-05 -5.70093e-08 0)
(2.28292e-05 -5.29162e-08 0)
(2.30093e-05 -4.87935e-08 0)
(2.31747e-05 -4.46461e-08 0)
(2.33255e-05 -4.04785e-08 0)
(2.34615e-05 -3.62935e-08 0)
(2.35826e-05 -3.20927e-08 0)
(2.36889e-05 -2.78767e-08 0)
(2.37801e-05 -2.36466e-08 0)
(2.38564e-05 -1.94039e-08 0)
(2.39177e-05 -1.5151e-08 0)
(2.39638e-05 -1.08901e-08 0)
(2.39949e-05 -6.62307e-09 0)
(2.40108e-05 -2.35101e-09 0)
(2.40116e-05 1.92481e-09 0)
(2.39972e-05 6.20215e-09 0)
(2.39677e-05 1.04777e-08 0)
(2.39231e-05 1.47479e-08 0)
(2.38633e-05 1.90101e-08 0)
(2.37885e-05 2.32635e-08 0)
(2.36987e-05 2.75077e-08 0)
(2.35938e-05 3.17422e-08 0)
(2.3474e-05 3.59648e-08 0)
(2.33393e-05 4.01723e-08 0)
(2.31897e-05 4.43608e-08 0)
(2.30253e-05 4.85271e-08 0)
(2.28462e-05 5.26685e-08 0)
(2.26526e-05 5.6783e-08 0)
(2.24444e-05 6.08686e-08 0)
(2.22219e-05 6.49222e-08 0)
(2.19851e-05 6.89404e-08 0)
(2.17342e-05 7.29195e-08 0)
(2.14693e-05 7.68562e-08 0)
(2.11907e-05 8.0748e-08 0)
(2.08984e-05 8.4592e-08 0)
(2.05927e-05 8.83848e-08 0)
(2.02737e-05 9.21208e-08 0)
(1.99418e-05 9.5793e-08 0)
(1.95971e-05 9.93943e-08 0)
(1.92399e-05 1.02919e-07 0)
(1.88704e-05 1.06362e-07 0)
(1.84891e-05 1.0972e-07 0)
(1.80961e-05 1.12988e-07 0)
(1.76919e-05 1.16159e-07 0)
(1.72768e-05 1.19228e-07 0)
(1.68511e-05 1.22185e-07 0)
(1.64154e-05 1.25023e-07 0)
(1.59701e-05 1.27734e-07 0)
(1.55155e-05 1.30311e-07 0)
(1.50523e-05 1.32748e-07 0)
(1.45809e-05 1.35034e-07 0)
(1.41019e-05 1.37161e-07 0)
(1.36159e-05 1.39118e-07 0)
(1.31235e-05 1.40894e-07 0)
(1.26254e-05 1.42478e-07 0)
(1.21223e-05 1.43861e-07 0)
(1.16148e-05 1.45036e-07 0)
(1.11038e-05 1.45989e-07 0)
(1.05901e-05 1.46705e-07 0)
(1.00745e-05 1.4717e-07 0)
(9.55792e-06 1.47373e-07 0)
(9.04125e-06 1.47305e-07 0)
(8.5255e-06 1.46956e-07 0)
(8.01168e-06 1.46312e-07 0)
(7.50089e-06 1.45356e-07 0)
(6.99425e-06 1.44065e-07 0)
(6.49295e-06 1.42419e-07 0)
(5.99818e-06 1.40404e-07 0)
(5.51122e-06 1.38009e-07 0)
(5.03339e-06 1.3522e-07 0)
(4.56608e-06 1.32023e-07 0)
(4.11071e-06 1.28398e-07 0)
(3.66877e-06 1.24322e-07 0)
(3.24179e-06 1.19776e-07 0)
(2.83136e-06 1.14742e-07 0)
(2.43909e-06 1.09205e-07 0)
(2.06666e-06 1.03148e-07 0)
(1.71578e-06 9.65541e-08 0)
(1.38819e-06 8.94071e-08 0)
(1.08565e-06 8.16884e-08 0)
(8.09935e-07 7.33814e-08 0)
(5.62782e-07 6.44758e-08 0)
(3.45869e-07 5.49798e-08 0)
(1.60757e-07 4.49328e-08 0)
(8.84714e-09 3.44093e-08 0)
(-1.08683e-07 2.34959e-08 0)
(-1.90974e-07 1.22666e-08 0)
(-2.37744e-07 8.24326e-10 0)
(-2.49799e-07 -1.04978e-08 0)
(-2.29814e-07 -2.07709e-08 0)
(-1.83045e-07 -2.82628e-08 0)
(-1.18279e-07 -3.05434e-08 0)
(-5.22869e-08 -2.44849e-08 0)
(-1.07133e-08 -8.32787e-09 0)
(-3.16398e-08 3.64964e-08 0)
(-1.19067e-07 9.9295e-08 0)
(-2.3238e-07 1.15597e-07 0)
(-3.29138e-07 9.52323e-08 0)
(-3.77065e-07 5.20343e-08 0)
(-3.56386e-07 -4.75976e-09 0)
(-2.54635e-07 -6.90427e-08 0)
(-6.45555e-08 -1.36791e-07 0)
(2.17591e-07 -2.0542e-07 0)
(5.92833e-07 -2.73342e-07 0)
(1.06021e-06 -3.39551e-07 0)
(1.61739e-06 -4.03352e-07 0)
(2.26121e-06 -4.64253e-07 0)
(2.98796e-06 -5.21962e-07 0)
(3.79346e-06 -5.76328e-07 0)
(4.67327e-06 -6.2729e-07 0)
(5.62286e-06 -6.74837e-07 0)
(6.63766e-06 -7.19008e-07 0)
(7.71306e-06 -7.59854e-07 0)
(8.8444e-06 -7.97411e-07 0)
(1.00271e-05 -8.31706e-07 0)
(1.12566e-05 -8.62785e-07 0)
(1.25287e-05 -8.9074e-07 0)
(1.38391e-05 -9.15699e-07 0)
(1.51835e-05 -9.37796e-07 0)
(1.65582e-05 -9.57151e-07 0)
(1.79591e-05 -9.73861e-07 0)
(1.93825e-05 -9.88012e-07 0)
(2.08248e-05 -9.99688e-07 0)
(2.22826e-05 -1.00899e-06 0)
(2.37525e-05 -1.01602e-06 0)
(2.52315e-05 -1.02089e-06 0)
(2.67163e-05 -1.02372e-06 0)
(2.82042e-05 -1.02459e-06 0)
(2.96923e-05 -1.02358e-06 0)
(3.11779e-05 -1.02077e-06 0)
(3.26584e-05 -1.01623e-06 0)
(3.41313e-05 -1.01004e-06 0)
(3.55945e-05 -1.00228e-06 0)
(3.70456e-05 -9.93041e-07 0)
(3.84827e-05 -9.824e-07 0)
(3.99035e-05 -9.70439e-07 0)
(4.13064e-05 -9.57233e-07 0)
(4.26895e-05 -9.42848e-07 0)
(4.40511e-05 -9.2734e-07 0)
(4.53895e-05 -9.10763e-07 0)
(4.67033e-05 -8.93177e-07 0)
(4.79909e-05 -8.7464e-07 0)
(4.92511e-05 -8.55211e-07 0)
(5.04825e-05 -8.34942e-07 0)
(5.16841e-05 -8.13879e-07 0)
(5.28545e-05 -7.92062e-07 0)
(5.39928e-05 -7.69531e-07 0)
(5.50979e-05 -7.46332e-07 0)
(5.6169e-05 -7.22513e-07 0)
(5.72051e-05 -6.9812e-07 0)
(5.82054e-05 -6.73197e-07 0)
(5.91691e-05 -6.47784e-07 0)
(6.00955e-05 -6.21916e-07 0)
(6.0984e-05 -5.95619e-07 0)
(6.18339e-05 -5.6892e-07 0)
(6.26446e-05 -5.41843e-07 0)
(6.34156e-05 -5.14415e-07 0)
(6.41464e-05 -4.86667e-07 0)
(6.48366e-05 -4.58628e-07 0)
(6.54857e-05 -4.30324e-07 0)
(6.60933e-05 -4.01771e-07 0)
(6.66591e-05 -3.72988e-07 0)
(6.71827e-05 -3.43995e-07 0)
(6.76639e-05 -3.14815e-07 0)
(6.81023e-05 -2.85472e-07 0)
(6.84979e-05 -2.55985e-07 0)
(6.88503e-05 -2.2637e-07 0)
(6.91593e-05 -1.96639e-07 0)
(6.94248e-05 -1.66804e-07 0)
(6.96467e-05 -1.3688e-07 0)
(6.98249e-05 -1.06882e-07 0)
(6.99592e-05 -7.68269e-08 0)
(7.00495e-05 -4.67296e-08 0)
(7.00959e-05 -1.6603e-08 0)
(7.00982e-05 1.35406e-08 0)
(7.00564e-05 4.36878e-08 0)
(6.99707e-05 7.38224e-08 0)
(6.98409e-05 1.03927e-07 0)
(6.96672e-05 1.33985e-07 0)
(6.94497e-05 1.63983e-07 0)
(6.91884e-05 1.93909e-07 0)
(6.88835e-05 2.23751e-07 0)
(6.8535e-05 2.53493e-07 0)
(6.81433e-05 2.83117e-07 0)
(6.77083e-05 3.12602e-07 0)
(6.72305e-05 3.41927e-07 0)
(6.671e-05 3.71071e-07 0)
(6.6147e-05 4.00018e-07 0)
(6.5542e-05 4.28747e-07 0)
(6.48953e-05 4.57238e-07 0)
(6.42072e-05 4.85467e-07 0)
(6.34782e-05 5.13407e-07 0)
(6.27087e-05 5.41034e-07 0)
(6.18992e-05 5.6832e-07 0)
(6.10503e-05 5.9524e-07 0)
(6.01624e-05 6.21765e-07 0)
(5.92363e-05 6.47861e-07 0)
(5.82726e-05 6.73491e-07 0)
(5.7272e-05 6.98614e-07 0)
(5.62353e-05 7.2319e-07 0)
(5.51633e-05 7.47183e-07 0)
(5.40569e-05 7.70556e-07 0)
(5.29171e-05 7.93268e-07 0)
(5.17448e-05 8.15275e-07 0)
(5.05412e-05 8.3653e-07 0)
(4.93074e-05 8.56983e-07 0)
(4.80446e-05 8.76581e-07 0)
(4.67542e-05 8.95271e-07 0)
(4.54374e-05 9.12998e-07 0)
(4.40958e-05 9.29708e-07 0)
(4.27309e-05 9.4534e-07 0)
(4.13444e-05 9.59831e-07 0)
(3.99379e-05 9.73112e-07 0)
(3.85134e-05 9.85114e-07 0)
(3.70726e-05 9.95763e-07 0)
(3.56177e-05 1.00499e-06 0)
(3.41507e-05 1.01274e-06 0)
(3.2674e-05 1.01891e-06 0)
(3.11897e-05 1.02344e-06 0)
(2.97005e-05 1.02622e-06 0)
(2.82088e-05 1.02718e-06 0)
(2.67174e-05 1.02624e-06 0)
(2.5229e-05 1.02331e-06 0)
(2.37467e-05 1.01831e-06 0)
(2.22736e-05 1.01114e-06 0)
(2.08127e-05 1.00169e-06 0)
(1.93676e-05 9.89853e-07 0)
(1.79417e-05 9.75526e-07 0)
(1.65385e-05 9.58619e-07 0)
(1.51619e-05 9.39038e-07 0)
(1.38157e-05 9.16689e-07 0)
(1.2504e-05 8.91469e-07 0)
(1.12309e-05 8.63271e-07 0)
(1.00006e-05 8.31992e-07 0)
(8.81748e-06 7.9754e-07 0)
(7.68611e-06 7.59835e-07 0)
(6.61097e-06 7.18809e-07 0)
(5.5967e-06 6.74409e-07 0)
(4.64791e-06 6.26594e-07 0)
(3.76925e-06 5.75349e-07 0)
(2.96525e-06 5.20691e-07 0)
(2.24032e-06 4.62696e-07 0)
(1.5986e-06 4.01527e-07 0)
(1.04382e-06 3.37498e-07 0)
(5.79e-07 2.71129e-07 0)
(2.06275e-07 2.032e-07 0)
(-7.34796e-08 1.34741e-07 0)
(-2.6102e-07 6.71078e-08 0)
(-3.59558e-07 2.39521e-09 0)
(-3.76304e-07 -5.56011e-08 0)
(-3.2451e-07 -1.00192e-07 0)
(-2.25276e-07 -1.21515e-07 0)
(-1.11463e-07 -1.07443e-07 0)
(-2.80038e-08 -4.78408e-08 0)
(-3.36087e-08 1.1026e-07 0)
(-1.26117e-07 2.16837e-07 0)
(-2.35838e-07 2.23873e-07 0)
(-3.04698e-07 1.56621e-07 0)
(-2.93558e-07 3.83785e-08 0)
(-1.77309e-07 -1.12926e-07 0)
(6.10657e-08 -2.84313e-07 0)
(4.32551e-07 -4.66409e-07 0)
(9.4314e-07 -6.52655e-07 0)
(1.59511e-06 -8.38557e-07 0)
(2.38788e-06 -1.02107e-06 0)
(3.31881e-06 -1.19808e-06 0)
(4.38385e-06 -1.36808e-06 0)
(5.57781e-06 -1.53005e-06 0)
(6.89476e-06 -1.68339e-06 0)
(8.32825e-06 -1.82769e-06 0)
(9.87156e-06 -1.96275e-06 0)
(1.15178e-05 -2.0885e-06 0)
(1.326e-05 -2.20499e-06 0)
(1.5091e-05 -2.31231e-06 0)
(1.70039e-05 -2.41059e-06 0)
(1.89916e-05 -2.49998e-06 0)
(2.10474e-05 -2.5807e-06 0)
(2.31645e-05 -2.65299e-06 0)
(2.53365e-05 -2.71714e-06 0)
(2.75572e-05 -2.77343e-06 0)
(2.98203e-05 -2.82213e-06 0)
(3.212e-05 -2.86352e-06 0)
(3.44504e-05 -2.89786e-06 0)
(3.68062e-05 -2.9254e-06 0)
(3.91819e-05 -2.94642e-06 0)
(4.15725e-05 -2.9612e-06 0)
(4.39731e-05 -2.96999e-06 0)
(4.63789e-05 -2.97308e-06 0)
(4.87855e-05 -2.9707e-06 0)
(5.11885e-05 -2.96311e-06 0)
(5.35838e-05 -2.95053e-06 0)
(5.59675e-05 -2.93319e-06 0)
(5.83356e-05 -2.91132e-06 0)
(6.06848e-05 -2.88514e-06 0)
(6.30116e-05 -2.85486e-06 0)
(6.53126e-05 -2.8207e-06 0)
(6.7585e-05 -2.78286e-06 0)
(6.98256e-05 -2.74154e-06 0)
(7.20318e-05 -2.69691e-06 0)
(7.42009e-05 -2.64915e-06 0)
(7.63304e-05 -2.59843e-06 0)
(7.84179e-05 -2.54492e-06 0)
(8.04612e-05 -2.48877e-06 0)
(8.24583e-05 -2.43014e-06 0)
(8.44071e-05 -2.36916e-06 0)
(8.63057e-05 -2.30598e-06 0)
(8.81525e-05 -2.24073e-06 0)
(8.99458e-05 -2.17352e-06 0)
(9.16839e-05 -2.10448e-06 0)
(9.33656e-05 -2.03374e-06 0)
(9.49893e-05 -1.96141e-06 0)
(9.65539e-05 -1.88761e-06 0)
(9.80581e-05 -1.81243e-06 0)
(9.95008e-05 -1.73596e-06 0)
(0.000100881 -1.6583e-06 0)
(0.000102198 -1.57953e-06 0)
(0.00010345 -1.49973e-06 0)
(0.000104637 -1.41896e-06 0)
(0.000105759 -1.33732e-06 0)
(0.000106813 -1.25488e-06 0)
(0.0001078 -1.1717e-06 0)
(0.00010872 -1.08785e-06 0)
(0.000109571 -1.00337e-06 0)
(0.000110353 -9.18336e-07 0)
(0.000111065 -8.328e-07 0)
(0.000111708 -7.46819e-07 0)
(0.000112281 -6.60444e-07 0)
(0.000112784 -5.7372e-07 0)
(0.000113215 -4.86689e-07 0)
(0.000113576 -3.99396e-07 0)
(0.000113866 -3.11886e-07 0)
(0.000114084 -2.24204e-07 0)
(0.000114231 -1.36398e-07 0)
(0.000114306 -4.85093e-08 0)
(0.00011431 3.94222e-08 0)
(0.000114242 1.27357e-07 0)
(0.000114103 2.15252e-07 0)
(0.000113892 3.03064e-07 0)
(0.00011361 3.90748e-07 0)
(0.000113257 4.78257e-07 0)
(0.000112832 5.65548e-07 0)
(0.000112336 6.52577e-07 0)
(0.00011177 7.39297e-07 0)
(0.000111133 8.25657e-07 0)
(0.000110427 9.11602e-07 0)
(0.00010965 9.97072e-07 0)
(0.000108804 1.08201e-06 0)
(0.00010789 1.16636e-06 0)
(0.000106907 1.25005e-06 0)
(0.000105856 1.33303e-06 0)
(0.000104739 1.41523e-06 0)
(0.000103555 1.49656e-06 0)
(0.000102305 1.57696e-06 0)
(0.00010099 1.65634e-06 0)
(9.96117e-05 1.73462e-06 0)
(9.81701e-05 1.81171e-06 0)
(9.66666e-05 1.88751e-06 0)
(9.51022e-05 1.96193e-06 0)
(9.34781e-05 2.03486e-06 0)
(9.17956e-05 2.10618e-06 0)
(9.00561e-05 2.17578e-06 0)
(8.8261e-05 2.24355e-06 0)
(8.64119e-05 2.30936e-06 0)
(8.45104e-05 2.37308e-06 0)
(8.25584e-05 2.43458e-06 0)
(8.05577e-05 2.49372e-06 0)
(7.85103e-05 2.55033e-06 0)
(7.64184e-05 2.60428e-06 0)
(7.42842e-05 2.65539e-06 0)
(7.21101e-05 2.70352e-06 0)
(6.98986e-05 2.74847e-06 0)
(6.76525e-05 2.79007e-06 0)
(6.53744e-05 2.82813e-06 0)
(6.30675e-05 2.86246e-06 0)
(6.07347e-05 2.89285e-06 0)
(5.83795e-05 2.91908e-06 0)
(5.60052e-05 2.94097e-06 0)
(5.36155e-05 2.9583e-06 0)
(5.12141e-05 2.97082e-06 0)
(4.88051e-05 2.97831e-06 0)
(4.63926e-05 2.98051e-06 0)
(4.3981e-05 2.97718e-06 0)
(4.15748e-05 2.96808e-06 0)
(3.91787e-05 2.95297e-06 0)
(3.67978e-05 2.93158e-06 0)
(3.44371e-05 2.90365e-06 0)
(3.21021e-05 2.86889e-06 0)
(2.97982e-05 2.82702e-06 0)
(2.75313e-05 2.77778e-06 0)
(2.53073e-05 2.72089e-06 0)
(2.31324e-05 2.65611e-06 0)
(2.10128e-05 2.58316e-06 0)
(1.89551e-05 2.50181e-06 0)
(1.6966e-05 2.4118e-06 0)
(1.50523e-05 2.31291e-06 0)
(1.32209e-05 2.20497e-06 0)
(1.14789e-05 2.08782e-06 0)
(9.83322e-06 1.9614e-06 0)
(8.29096e-06 1.82568e-06 0)
(6.85903e-06 1.68074e-06 0)
(5.54415e-06 1.5268e-06 0)
(4.35271e-06 1.36425e-06 0)
(3.29061e-06 1.19372e-06 0)
(2.36298e-06 1.0162e-06 0)
(1.57387e-06 8.33168e-07 0)
(9.2575e-07 6.46898e-07 0)
(4.18891e-07 4.60669e-07 0)
(5.08407e-08 2.7896e-07 0)
(-1.84145e-07 1.07754e-07 0)
(-2.96324e-07 -4.44488e-08 0)
(-3.02759e-07 -1.64697e-07 0)
(-2.30456e-07 -2.33687e-07 0)
(-1.21615e-07 -2.26312e-07 0)
(-3.21395e-08 -1.1634e-07 0)
(-2.90659e-08 1.793e-07 0)
(-1.01121e-07 3.18167e-07 0)
(-1.6534e-07 2.93829e-07 0)
(-1.60345e-07 1.50731e-07 0)
(-4.41219e-08 -7.62043e-08 0)
(2.10944e-07 -3.59788e-07 0)
(6.24595e-07 -6.79224e-07 0)
(1.20989e-06 -1.01909e-06 0)
(1.97444e-06 -1.36804e-06 0)
(2.92146e-06 -1.71793e-06 0)
(4.0508e-06 -2.0629e-06 0)
(5.35979e-06 -2.39876e-06 0)
(6.84381e-06 -2.72251e-06 0)
(8.49676e-06 -3.03207e-06 0)
(1.03114e-05 -3.32603e-06 0)
(1.22798e-05 -3.60343e-06 0)
(1.43936e-05 -3.86369e-06 0)
(1.66439e-05 -4.10655e-06 0)
(1.90219e-05 -4.33193e-06 0)
(2.15183e-05 -4.53994e-06 0)
(2.41242e-05 -4.73078e-06 0)
(2.68304e-05 -4.90472e-06 0)
(2.9628e-05 -5.0621e-06 0)
(3.25082e-05 -5.20334e-06 0)
(3.54624e-05 -5.3289e-06 0)
(3.84823e-05 -5.43925e-06 0)
(4.15597e-05 -5.53492e-06 0)
(4.46867e-05 -5.61639e-06 0)
(4.78556e-05 -5.68416e-06 0)
(5.10592e-05 -5.73875e-06 0)
(5.42901e-05 -5.78064e-06 0)
(5.75415e-05 -5.81033e-06 0)
(6.08069e-05 -5.82833e-06 0)
(6.40798e-05 -5.83514e-06 0)
(6.73541e-05 -5.83123e-06 0)
(7.0624e-05 -5.8171e-06 0)
(7.38839e-05 -5.79318e-06 0)
(7.71284e-05 -5.75995e-06 0)
(8.03524e-05 -5.71781e-06 0)
(8.3551e-05 -5.6672e-06 0)
(8.67195e-05 -5.60853e-06 0)
(8.98536e-05 -5.54219e-06 0)
(9.2949e-05 -5.46857e-06 0)
(9.60017e-05 -5.38806e-06 0)
(9.90079e-05 -5.30101e-06 0)
(0.000101964 -5.20778e-06 0)
(0.000104866 -5.10868e-06 0)
(0.000107712 -5.00405e-06 0)
(0.000110498 -4.8942e-06 0)
(0.000113221 -4.77941e-06 0)
(0.000115879 -4.65998e-06 0)
(0.000118468 -4.53618e-06 0)
(0.000120988 -4.40827e-06 0)
(0.000123434 -4.27649e-06 0)
(0.000125806 -4.14108e-06 0)
(0.0001281 -4.00228e-06 0)
(0.000130316 -3.86031e-06 0)
(0.000132452 -3.71538e-06 0)
(0.000134505 -3.5677e-06 0)
(0.000136474 -3.41745e-06 0)
(0.000138359 -3.26481e-06 0)
(0.000140157 -3.10994e-06 0)
(0.000141867 -2.95302e-06 0)
(0.000143488 -2.79418e-06 0)
(0.000145019 -2.63359e-06 0)
(0.00014646 -2.47138e-06 0)
(0.000147808 -2.3077e-06 0)
(0.000149064 -2.14265e-06 0)
(0.000150226 -1.97638e-06 0)
(0.000151295 -1.80898e-06 0)
(0.000152269 -1.64057e-06 0)
(0.000153147 -1.47125e-06 0)
(0.00015393 -1.30114e-06 0)
(0.000154616 -1.13033e-06 0)
(0.000155206 -9.58904e-07 0)
(0.000155699 -7.86955e-07 0)
(0.000156095 -6.14572e-07 0)
(0.000156393 -4.41846e-07 0)
(0.000156594 -2.68867e-07 0)
(0.000156697 -9.57219e-08 0)
(0.000156703 7.75045e-08 0)
(0.00015661 2.50731e-07 0)
(0.00015642 4.23876e-07 0)
(0.000156132 5.96854e-07 0)
(0.000155747 7.69576e-07 0)
(0.000155264 9.41952e-07 0)
(0.000154684 1.11389e-06 0)
(0.000154007 1.28529e-06 0)
(0.000153233 1.45607e-06 0)
(0.000152364 1.62612e-06 0)
(0.000151398 1.79533e-06 0)
(0.000150338 1.9636e-06 0)
(0.000149183 2.13079e-06 0)
(0.000147934 2.29681e-06 0)
(0.000146591 2.46151e-06 0)
(0.000145157 2.62478e-06 0)
(0.00014363 2.78648e-06 0)
(0.000142014 2.94645e-06 0)
(0.000140307 3.10454e-06 0)
(0.000138513 3.2606e-06 0)
(0.000136631 3.41445e-06 0)
(0.000134663 3.56591e-06 0)
(0.000132611 3.71481e-06 0)
(0.000130476 3.86094e-06 0)
(0.00012826 4.00411e-06 0)
(0.000125964 4.14408e-06 0)
(0.000123591 4.28064e-06 0)
(0.000121142 4.41355e-06 0)
(0.00011862 4.54256e-06 0)
(0.000116027 4.66743e-06 0)
(0.000113365 4.78788e-06 0)
(0.000110637 4.90364e-06 0)
(0.000107846 5.01442e-06 0)
(0.000104994 5.11989e-06 0)
(0.000102085 5.21976e-06 0)
(9.91224e-05 5.3137e-06 0)
(9.61092e-05 5.40138e-06 0)
(9.30491e-05 5.48243e-06 0)
(8.99461e-05 5.55649e-06 0)
(8.68041e-05 5.62319e-06 0)
(8.36274e-05 5.68214e-06 0)
(8.04206e-05 5.73291e-06 0)
(7.71884e-05 5.77512e-06 0)
(7.39356e-05 5.80834e-06 0)
(7.06674e-05 5.83214e-06 0)
(6.73892e-05 5.84606e-06 0)
(6.41068e-05 5.84963e-06 0)
(6.08259e-05 5.84238e-06 0)
(5.75528e-05 5.82384e-06 0)
(5.4294e-05 5.79352e-06 0)
(5.10559e-05 5.75094e-06 0)
(4.78456e-05 5.69561e-06 0)
(4.46703e-05 5.62701e-06 0)
(4.15374e-05 5.54462e-06 0)
(3.84547e-05 5.44795e-06 0)
(3.543e-05 5.33649e-06 0)
(3.24717e-05 5.20977e-06 0)
(2.9588e-05 5.06732e-06 0)
(2.67875e-05 4.90872e-06 0)
(2.40792e-05 4.73355e-06 0)
(2.14718e-05 4.54147e-06 0)
(1.89745e-05 4.33219e-06 0)
(1.65963e-05 4.10552e-06 0)
(1.43464e-05 3.86139e-06 0)
(1.22337e-05 3.5999e-06 0)
(1.02671e-05 3.32135e-06 0)
(8.45476e-06 3.02631e-06 0)
(6.80475e-06 2.71574e-06 0)
(5.32414e-06 2.39107e-06 0)
(4.01899e-06 2.05438e-06 0)
(2.89392e-06 1.70862e-06 0)
(1.95163e-06 1.35801e-06 0)
(1.192e-06 1.00858e-06 0)
(6.11263e-07 6.68806e-07 0)
(2.014e-07 3.50059e-07 0)
(-5.02681e-08 6.7137e-08 0)
(-1.62509e-07 -1.60091e-07 0)
(-1.6356e-07 -3.04016e-07 0)
(-9.85123e-08 -3.27339e-07 0)
(-2.82053e-08 -1.83319e-07 0)
(-2.0767e-08 2.27384e-07 0)
(-5.56355e-08 3.69511e-07 0)
(-4.49872e-08 2.84641e-07 0)
(6.79014e-08 3.51515e-08 0)
(3.23807e-07 -3.3255e-07 0)
(7.51222e-07 -7.81742e-07 0)
(1.37063e-06 -1.28401e-06 0)
(2.19604e-06 -1.81762e-06 0)
(3.23578e-06 -2.36625e-06 0)
(4.4936e-06 -2.91769e-06 0)
(5.96963e-06 -3.4629e-06 0)
(7.66112e-06 -3.9952e-06 0)
(9.5631e-06 -4.50974e-06 0)
(1.16688e-05 -5.00303e-06 0)
(1.397e-05 -5.47258e-06 0)
(1.64576e-05 -5.91669e-06 0)
(1.9122e-05 -6.33424e-06 0)
(2.19527e-05 -6.72459e-06 0)
(2.49393e-05 -7.0875e-06 0)
(2.80709e-05 -7.42299e-06 0)
(3.13367e-05 -7.73127e-06 0)
(3.47258e-05 -8.01269e-06 0)
(3.82274e-05 -8.26774e-06 0)
(4.1831e-05 -8.49698e-06 0)
(4.5526e-05 -8.70108e-06 0)
(4.93023e-05 -8.88075e-06 0)
(5.31499e-05 -9.03673e-06 0)
(5.70592e-05 -9.1698e-06 0)
(6.10207e-05 -9.28075e-06 0)
(6.50254e-05 -9.37035e-06 0)
(6.90644e-05 -9.43938e-06 0)
(7.31292e-05 -9.48862e-06 0)
(7.72117e-05 -9.51887e-06 0)
(8.13038e-05 -9.5309e-06 0)
(8.53982e-05 -9.52549e-06 0)
(8.94874e-05 -9.50339e-06 0)
(9.35645e-05 -9.46534e-06 0)
(9.76228e-05 -9.41205e-06 0)
(0.000101656 -9.34424e-06 0)
(0.000105658 -9.26256e-06 0)
(0.000109623 -9.16769e-06 0)
(0.000113545 -9.06025e-06 0)
(0.000117419 -8.94089e-06 0)
(0.00012124 -8.81021e-06 0)
(0.000125004 -8.66879e-06 0)
(0.000128705 -8.5172e-06 0)
(0.000132339 -8.35598e-06 0)
(0.000135903 -8.18565e-06 0)
(0.000139393 -8.00672e-06 0)
(0.000142804 -7.81967e-06 0)
(0.000146133 -7.62497e-06 0)
(0.000149378 -7.42306e-06 0)
(0.000152535 -7.21436e-06 0)
(0.000155601 -6.99929e-06 0)
(0.000158573 -6.77824e-06 0)
(0.00016145 -6.55158e-06 0)
(0.000164227 -6.31968e-06 0)
(0.000166904 -6.08288e-06 0)
(0.000169479 -5.84151e-06 0)
(0.000171948 -5.59588e-06 0)
(0.000174311 -5.34628e-06 0)
(0.000176566 -5.093e-06 0)
(0.000178711 -4.8363e-06 0)
(0.000180744 -4.57643e-06 0)
(0.000182665 -4.31365e-06 0)
(0.000184472 -4.04817e-06 0)
(0.000186164 -3.78024e-06 0)
(0.00018774 -3.51005e-06 0)
(0.000189198 -3.2378e-06 0)
(0.000190539 -2.96369e-06 0)
(0.000191761 -2.68789e-06 0)
(0.000192863 -2.41059e-06 0)
(0.000193845 -2.13195e-06 0)
(0.000194707 -1.85214e-06 0)
(0.000195447 -1.57131e-06 0)
(0.000196066 -1.28962e-06 0)
(0.000196563 -1.0072e-06 0)
(0.000196938 -7.24208e-07 0)
(0.00019719 -4.40795e-07 0)
(0.00019732 -1.57103e-07 0)
(0.000197326 1.26724e-07 0)
(0.000197211 4.10548e-07 0)
(0.000196972 6.94231e-07 0)
(0.000196611 9.77633e-07 0)
(0.000196127 1.26061e-06 0)
(0.000195522 1.54301e-06 0)
(0.000194794 1.82467e-06 0)
(0.000193945 2.10545e-06 0)
(0.000192974 2.38517e-06 0)
(0.000191883 2.66367e-06 0)
(0.000190672 2.94078e-06 0)
(0.000189342 3.21631e-06 0)
(0.000187893 3.49007e-06 0)
(0.000186326 3.76186e-06 0)
(0.000184642 4.03147e-06 0)
(0.000182843 4.29869e-06 0)
(0.000180929 4.56328e-06 0)
(0.000178901 4.82502e-06 0)
(0.000176761 5.08364e-06 0)
(0.000174511 5.33888e-06 0)
(0.000172151 5.59045e-06 0)
(0.000169684 5.83807e-06 0)
(0.000167111 6.08143e-06 0)
(0.000164435 6.32022e-06 0)
(0.000161657 6.55409e-06 0)
(0.00015878 6.7827e-06 0)
(0.000155805 7.00566e-06 0)
(0.000152737 7.22259e-06 0)
(0.000149577 7.4331e-06 0)
(0.000146328 7.63676e-06 0)
(0.000142993 7.83315e-06 0)
(0.000139576 8.0218e-06 0)
(0.00013608 8.20223e-06 0)
(0.000132509 8.37396e-06 0)
(0.000128867 8.53646e-06 0)
(0.000125157 8.68921e-06 0)
(0.000121385 8.83166e-06 0)
(0.000117555 8.96324e-06 0)
(0.000113671 9.08336e-06 0)
(0.000109739 9.19141e-06 0)
(0.000105764 9.28676e-06 0)
(0.000101752 9.36876e-06 0)
(9.77087e-05 9.43672e-06 0)
(9.36399e-05 9.48999e-06 0)
(8.95524e-05 9.52787e-06 0)
(8.54528e-05 9.54964e-06 0)
(8.13483e-05 9.55456e-06 0)
(7.7246e-05 9.54186e-06 0)
(7.31538e-05 9.51079e-06 0)
(6.90796e-05 9.46058e-06 0)
(6.50315e-05 9.39046e-06 0)
(6.10182e-05 9.29965e-06 0)
(5.70486e-05 9.18737e-06 0)
(5.31317e-05 9.05282e-06 0)
(4.92772e-05 8.89524e-06 0)
(4.54947e-05 8.71385e-06 0)
(4.17942e-05 8.50792e-06 0)
(3.81859e-05 8.27678e-06 0)
(3.46804e-05 8.01979e-06 0)
(3.12882e-05 7.73638e-06 0)
(2.80201e-05 7.42608e-06 0)
(2.4887e-05 7.08854e-06 0)
(2.18997e-05 6.72357e-06 0)
(1.90691e-05 6.33119e-06 0)
(1.64056e-05 5.91172e-06 0)
(1.39196e-05 5.4658e-06 0)
(1.16208e-05 4.99456e-06 0)
(9.51822e-06 4.4997e-06 0)
(7.61992e-06 3.98373e-06 0)
(5.93255e-06 3.45018e-06 0)
(4.46109e-06 2.90395e-06 0)
(3.20828e-06 2.35166e-06 0)
(2.174e-06 1.80232e-06 0)
(1.3541e-06 1.26829e-06 0)
(7.39497e-07 7.6641e-07 0)
(3.15752e-07 3.18622e-07 0)
(6.29825e-08 -4.72612e-08 0)
(-4.64828e-08 -2.95344e-07 0)
(-5.51041e-08 -3.78122e-07 0)
(-2.03922e-08 -2.30971e-07 0)
(-1.05169e-08 2.47508e-07 0)
(2.08425e-09 3.51721e-07 0)
(1.07546e-07 1.70788e-07 0)
(3.52415e-07 -2.18676e-07 0)
(7.73558e-07 -7.5959e-07 0)
(1.39845e-06 -1.40668e-06 0)
(2.2471e-06 -2.12413e-06 0)
(3.33321e-06 -2.88421e-06 0)
(4.66509e-06 -3.66553e-06 0)
(6.24655e-06 -4.45175e-06 0)
(8.07765e-06 -5.23042e-06 0)
(1.01555e-05 -5.99218e-06 0)
(1.24746e-05 -6.73006e-06 0)
(1.50278e-05 -7.43892e-06 0)
(1.78061e-05 -8.11502e-06 0)
(2.07995e-05 -8.75568e-06 0)
(2.39971e-05 -9.35911e-06 0)
(2.73875e-05 -9.92419e-06 0)
(3.09587e-05 -1.04504e-05 0)
(3.46985e-05 -1.09375e-05 0)
(3.85947e-05 -1.13857e-05 0)
(4.26346e-05 -1.17955e-05 0)
(4.68062e-05 -1.21673e-05 0)
(5.1097e-05 -1.2502e-05 0)
(5.5495e-05 -1.28004e-05 0)
(5.99884e-05 -1.30633e-05 0)
(6.45657e-05 -1.3292e-05 0)
(6.92156e-05 -1.34873e-05 0)
(7.39271e-05 -1.36504e-05 0)
(7.86897e-05 -1.37825e-05 0)
(8.34928e-05 -1.38845e-05 0)
(8.83267e-05 -1.39576e-05 0)
(9.31816e-05 -1.40029e-05 0)
(9.80482e-05 -1.40216e-05 0)
(0.000102918 -1.40147e-05 0)
(0.000107781 -1.39834e-05 0)
(0.000112631 -1.39286e-05 0)
(0.000117458 -1.38514e-05 0)
(0.000122256 -1.37528e-05 0)
(0.000127018 -1.36338e-05 0)
(0.000131735 -1.34954e-05 0)
(0.000136403 -1.33385e-05 0)
(0.000141014 -1.3164e-05 0)
(0.000145562 -1.29728e-05 0)
(0.000150042 -1.27657e-05 0)
(0.000154448 -1.25436e-05 0)
(0.000158775 -1.23072e-05 0)
(0.000163019 -1.20574e-05 0)
(0.000167174 -1.17948e-05 0)
(0.000171237 -1.15202e-05 0)
(0.000175203 -1.12343e-05 0)
(0.000179068 -1.09377e-05 0)
(0.000182829 -1.0631e-05 0)
(0.000186481 -1.03148e-05 0)
(0.000190023 -9.98978e-06 0)
(0.000193451 -9.65642e-06 0)
(0.000196761 -9.31526e-06 0)
(0.000199952 -8.96681e-06 0)
(0.00020302 -8.61155e-06 0)
(0.000205964 -8.24994e-06 0)
(0.000208781 -7.88243e-06 0)
(0.000211469 -7.50941e-06 0)
(0.000214026 -7.1313e-06 0)
(0.000216451 -6.74846e-06 0)
(0.000218741 -6.36127e-06 0)
(0.000220896 -5.97006e-06 0)
(0.000222914 -5.57517e-06 0)
(0.000224793 -5.17691e-06 0)
(0.000226532 -4.77558e-06 0)
(0.000228131 -4.37145e-06 0)
(0.000229589 -3.9648e-06 0)
(0.000230904 -3.5559e-06 0)
(0.000232076 -3.14499e-06 0)
(0.000233104 -2.73233e-06 0)
(0.000233987 -2.31814e-06 0)
(0.000234725 -1.90266e-06 0)
(0.000235318 -1.48609e-06 0)
(0.000235765 -1.06868e-06 0)
(0.000236066 -6.50628e-07 0)
(0.000236221 -2.32157e-07 0)
(0.00023623 1.8652e-07 0)
(0.000236092 6.05191e-07 0)
(0.000235807 1.02365e-06 0)
(0.000235377 1.44168e-06 0)
(0.0002348 1.85907e-06 0)
(0.000234078 2.27558e-06 0)
(0.00023321 2.691e-06 0)
(0.000232197 3.10509e-06 0)
(0.00023104 3.51759e-06 0)
(0.000229739 3.92827e-06 0)
(0.000228295 4.33686e-06 0)
(0.000226709 4.74308e-06 0)
(0.000224981 5.14665e-06 0)
(0.000223113 5.54727e-06 0)
(0.000221105 5.94464e-06 0)
(0.00021896 6.33843e-06 0)
(0.000216678 6.72831e-06 0)
(0.00021426 7.11392e-06 0)
(0.00021171 7.49487e-06 0)
(0.000209027 7.87078e-06 0)
(0.000206214 8.24123e-06 0)
(0.000203274 8.60578e-06 0)
(0.000200208 8.96399e-06 0)
(0.000197018 9.31539e-06 0)
(0.000193708 9.65948e-06 0)
(0.00019028 9.99573e-06 0)
(0.000186736 1.03236e-05 0)
(0.00018308 1.06425e-05 0)
(0.000179316 1.09519e-05 0)
(0.000175446 1.12512e-05 0)
(0.000171474 1.15396e-05 0)
(0.000167405 1.18166e-05 0)
(0.000163242 1.20814e-05 0)
(0.00015899 1.23333e-05 0)
(0.000154654 1.25716e-05 0)
(0.000150238 1.27954e-05 0)
(0.000145747 1.3004e-05 0)
(0.000141188 1.31966e-05 0)
(0.000136566 1.33722e-05 0)
(0.000131887 1.35301e-05 0)
(0.000127158 1.36692e-05 0)
(0.000122384 1.37887e-05 0)
(0.000117574 1.38876e-05 0)
(0.000112734 1.39648e-05 0)
(0.000107872 1.40194e-05 0)
(0.000102996 1.40503e-05 0)
(9.8114e-05 1.40565e-05 0)
(9.32353e-05 1.40369e-05 0)
(8.83686e-05 1.39904e-05 0)
(8.35233e-05 1.3916e-05 0)
(7.87092e-05 1.38124e-05 0)
(7.39362e-05 1.36786e-05 0)
(6.92147e-05 1.35136e-05 0)
(6.45556e-05 1.33161e-05 0)
(5.99697e-05 1.30851e-05 0)
(5.54685e-05 1.28197e-05 0)
(5.10636e-05 1.25187e-05 0)
(4.67668e-05 1.21814e-05 0)
(4.25903e-05 1.18067e-05 0)
(3.85462e-05 1.13941e-05 0)
(3.46468e-05 1.09429e-05 0)
(3.09047e-05 1.04528e-05 0)
(2.73321e-05 9.92372e-06 0)
(2.39413e-05 9.35575e-06 0)
(2.07442e-05 8.74955e-06 0)
(1.77521e-05 8.10628e-06 0)
(1.49761e-05 7.42777e-06 0)
(1.24259e-05 6.71668e-06 0)
(1.01104e-05 5.97675e-06 0)
(8.03685e-06 5.21317e-06 0)
(6.21051e-06 4.43306e-06 0)
(4.6342e-06 3.64588e-06 0)
(3.30777e-06 2.86398e-06 0)
(2.22741e-06 2.10359e-06 0)
(1.38437e-06 1.3863e-06 0)
(7.64101e-07 7.4056e-07 0)
(3.46258e-07 2.0237e-07 0)
(1.04221e-07 -1.83652e-07 0)
(1.06465e-09 -3.6075e-07 0)
(-1.06234e-08 -2.50989e-07 0)
(5.83914e-10 2.35318e-07 0)
(6.66251e-08 2.52522e-07 0)
(2.79575e-07 -6.541e-08 0)
(6.7283e-07 -6.31024e-07 0)
(1.27711e-06 -1.37861e-06 0)
(2.11767e-06 -2.25525e-06 0)
(3.21281e-06 -3.21867e-06 0)
(4.57502e-06 -4.23544e-06 0)
(6.21191e-06 -5.27936e-06 0)
(8.12677e-06 -6.33001e-06 0)
(1.03193e-05 -7.37154e-06 0)
(1.27861e-05 -8.39184e-06 0)
(1.55213e-05 -9.38166e-06 0)
(1.85171e-05 -1.03341e-05 0)
(2.1764e-05 -1.12439e-05 0)
(2.52511e-05 -1.21074e-05 0)
(2.89667e-05 -1.29219e-05 0)
(3.28982e-05 -1.36858e-05 0)
(3.70326e-05 -1.43981e-05 0)
(4.13564e-05 -1.50584e-05 0)
(4.5856e-05 -1.56667e-05 0)
(5.05179e-05 -1.62235e-05 0)
(5.53281e-05 -1.67293e-05 0)
(6.02731e-05 -1.71851e-05 0)
(6.53395e-05 -1.75919e-05 0)
(7.05139e-05 -1.79508e-05 0)
(7.57835e-05 -1.82633e-05 0)
(8.11355e-05 -1.85305e-05 0)
(8.65575e-05 -1.8754e-05 0)
(9.20376e-05 -1.89352e-05 0)
(9.7564e-05 -1.90755e-05 0)
(0.000103125 -1.91764e-05 0)
(0.000108711 -1.92394e-05 0)
(0.00011431 -1.9266e-05 0)
(0.000119912 -1.92576e-05 0)
(0.000125508 -1.92157e-05 0)
(0.000131087 -1.91416e-05 0)
(0.000136642 -1.90369e-05 0)
(0.000142163 -1.89028e-05 0)
(0.000147642 -1.87406e-05 0)
(0.000153072 -1.85518e-05 0)
(0.000158443 -1.83375e-05 0)
(0.000163751 -1.8099e-05 0)
(0.000168986 -1.78375e-05 0)
(0.000174143 -1.75542e-05 0)
(0.000179216 -1.72501e-05 0)
(0.000184199 -1.69263e-05 0)
(0.000189085 -1.6584e-05 0)
(0.000193871 -1.62241e-05 0)
(0.000198549 -1.58475e-05 0)
(0.000203117 -1.54552e-05 0)
(0.000207569 -1.50482e-05 0)
(0.000211901 -1.46272e-05 0)
(0.00021611 -1.41932e-05 0)
(0.00022019 -1.37468e-05 0)
(0.00022414 -1.32889e-05 0)
(0.000227954 -1.28202e-05 0)
(0.000231631 -1.23414e-05 0)
(0.000235167 -1.18531e-05 0)
(0.00023856 -1.1356e-05 0)
(0.000241807 -1.08507e-05 0)
(0.000244906 -1.03377e-05 0)
(0.000247854 -9.81767e-06 0)
(0.000250649 -9.29105e-06 0)
(0.000253289 -8.75837e-06 0)
(0.000255774 -8.2201e-06 0)
(0.0002581 -7.67669e-06 0)
(0.000260267 -7.12859e-06 0)
(0.000262273 -6.57619e-06 0)
(0.000264117 -6.01991e-06 0)
(0.000265798 -5.46012e-06 0)
(0.000267314 -4.89717e-06 0)
(0.000268666 -4.33143e-06 0)