/*--------------------------------*- C++ -*----------------------------------*\
  =========                 |
  \\      /  F ield         | OpenFOAM: The Open Source CFD Toolbox
   \\    /   O peration     | Website:  https://openfoam.org
    \\  /    A nd           | Version:  7
     \\/     M anipulation  |
\*---------------------------------------------------------------------------*/
FoamFile
{
    version     2.0;
    format      ascii;
    class       volScalarField;
    location    "0.2";
    object      p;
}
// * * * * * * * * * * * * * * * * * * * * * * * * * * * * * * * * * * * * * //

dimensions      [0 2 -2 0 0 0 0];

internalField   nonuniform List<scalar> 
51200
(
-3.3486e-08
-1.12607e-05
-2.75493e-05
-4.27099e-05
-5.45535e-05
-6.43066e-05
-7.26148e-05
-7.99055e-05
-8.64667e-05
-9.24735e-05
-9.80296e-05
-0.000103231
-0.000108153
-0.000112834
-0.000117315
-0.000121624
-0.000125766
-0.000129753
-0.00013361
-0.000137357
-0.000141003
-0.000144558
-0.000148025
-0.000151399
-0.000154684
-0.000157886
-0.000161004
-0.000164031
-0.000166967
-0.000169823
-0.000172609
-0.000175321
-0.000177958
-0.00018052
-0.00018301
-0.000185427
-0.000187767
-0.000190033
-0.000192235
-0.000194371
-0.000196434
-0.000198423
-0.00020034
-0.000202193
-0.00020398
-0.0002057
-0.000207352
-0.000208945
-0.000210481
-0.000211957
-0.000213368
-0.000214717
-0.000216014
-0.000217264
-0.000218469
-0.000219619
-0.000220713
-0.000221754
-0.00022275
-0.000223703
-0.000224612
-0.000225475
-0.000226299
-0.000227088
-0.000227842
-0.000228559
-0.000229237
-0.000229881
-0.0002305
-0.0002311
-0.00023168
-0.000232235
-0.000232763
-0.000233268
-0.000233756
-0.000234235
-0.000234705
-0.000235161
-0.000235602
-0.000236033
-0.000236459
-0.000236885
-0.00023731
-0.00023773
-0.000238142
-0.000238551
-0.000238963
-0.000239383
-0.000239813
-0.000240246
-0.00024068
-0.000241115
-0.000241558
-0.000242017
-0.000242497
-0.000242999
-0.000243519
-0.000244055
-0.000244608
-0.000245183
-0.000245786
-0.000246424
-0.000247097
-0.000247802
-0.000248534
-0.000249291
-0.000250075
-0.000250889
-0.000251736
-0.000252615
-0.000253525
-0.000254462
-0.000255425
-0.000256414
-0.000257432
-0.000258483
-0.000259572
-0.000260701
-0.000261866
-0.000263064
-0.000264292
-0.00026555
-0.00026684
-0.000268165
-0.000269522
-0.000270908
-0.000272317
-0.00027374
-0.000275175
-0.000276619
-0.000278077
-0.000279549
-0.000281038
-0.000282539
-0.000284044
-0.000285546
-0.000287038
-0.000288514
-0.000289971
-0.000291407
-0.000292819
-0.000294203
-0.00029555
-0.000296852
-0.000298097
-0.000299278
-0.000300385
-0.000301413
-0.00030236
-0.000303221
-0.000303991
-0.00030466
-0.000305216
-0.00030565
-0.000305952
-0.00030612
-0.000306159
-0.000306091
-0.000305957
-0.000305827
-1.15479e-05
-2.21698e-05
-3.51328e-05
-4.73303e-05
-5.77451e-05
-6.66498e-05
-7.43915e-05
-8.128e-05
-8.75426e-05
-9.33131e-05
-9.86882e-05
-0.000103741
-0.000108519
-0.00011307
-0.000117433
-0.000121632
-0.000125684
-0.000129599
-0.000133386
-0.000137056
-0.000140624
-0.000144103
-0.000147492
-0.000150791
-0.000154003
-0.000157137
-0.000160194
-0.000163167
-0.000166056
-0.00016887
-0.000171611
-0.000174279
-0.000176874
-0.000179403
-0.000181867
-0.00018426
-0.000186578
-0.000188827
-0.000191013
-0.000193134
-0.000195185
-0.000197166
-0.000199084
-0.000200942
-0.000202734
-0.000204455
-0.000206113
-0.000207715
-0.000209265
-0.000210757
-0.000212187
-0.000213559
-0.00021488
-0.000216156
-0.000217384
-0.00021856
-0.000219684
-0.000220764
-0.000221801
-0.000222792
-0.000223735
-0.000224633
-0.000225493
-0.000226322
-0.000227122
-0.000227886
-0.00022861
-0.000229301
-0.000229968
-0.000230616
-0.000231244
-0.000231846
-0.000232422
-0.000232977
-0.000233517
-0.000234049
-0.000234571
-0.000235078
-0.000235569
-0.00023605
-0.000236528
-0.000237007
-0.000237486
-0.000237959
-0.000238423
-0.000238881
-0.00023934
-0.000239809
-0.000240288
-0.000240771
-0.000241253
-0.000241736
-0.000242225
-0.000242728
-0.000243252
-0.000243795
-0.000244355
-0.000244928
-0.000245517
-0.00024613
-0.000246773
-0.000247448
-0.000248154
-0.000248888
-0.000249645
-0.000250426
-0.000251234
-0.000252073
-0.000252946
-0.000253848
-0.000254774
-0.000255722
-0.000256691
-0.000257685
-0.00025871
-0.000259768
-0.000260861
-0.000261989
-0.000263148
-0.000264336
-0.000265551
-0.000266795
-0.00026807
-0.000269377
-0.000270713
-0.000272075
-0.000273454
-0.000274843
-0.00027624
-0.000277645
-0.00027906
-0.000280489
-0.000281931
-0.000283383
-0.000284837
-0.000286283
-0.000287717
-0.000289131
-0.000290526
-0.000291898
-0.000293247
-0.000294567
-0.00029585
-0.000297086
-0.000298265
-0.00029938
-0.000300423
-0.000301389
-0.000302278
-0.000303089
-0.000303815
-0.000304449
-0.000304981
-0.0003054
-0.000305701
-0.000305883
-0.000305954
-0.000305932
-0.00030584
-0.00030571
-2.81248e-05
-3.53411e-05
-4.41584e-05
-5.33437e-05
-6.19369e-05
-6.97173e-05
-7.67257e-05
-8.31013e-05
-8.89745e-05
-9.4448e-05
-9.9597e-05
-0.000104459
-0.000109081
-0.000113495
-0.000117725
-0.000121803
-0.00012575
-0.000129576
-0.000133285
-0.000136881
-0.000140376
-0.000143783
-0.000147106
-0.000150341
-0.00015349
-0.000156564
-0.000159562
-0.000162482
-0.000165329
-0.000168106
-0.00017081
-0.00017344
-0.000176
-0.000178499
-0.000180938
-0.000183306
-0.000185605
-0.000187839
-0.000190012
-0.000192118
-0.000194155
-0.000196128
-0.000198045
-0.000199905
-0.000201698
-0.000203423
-0.000205087
-0.000206699
-0.000208257
-0.000209759
-0.000211203
-0.000212596
-0.000213942
-0.000215241
-0.000216486
-0.000217679
-0.000218828
-0.000219939
-0.000221009
-0.000222032
-0.000223006
-0.000223935
-0.00022483
-0.000225695
-0.00022653
-0.000227328
-0.000228089
-0.000228821
-0.000229531
-0.000230221
-0.000230888
-0.000231528
-0.000232144
-0.000232743
-0.00023333
-0.000233909
-0.000234473
-0.00023502
-0.000235552
-0.000236077
-0.000236601
-0.000237125
-0.000237648
-0.000238163
-0.00023867
-0.000239173
-0.000239678
-0.000240191
-0.00024071
-0.000241232
-0.000241752
-0.000242274
-0.000242803
-0.000243347
-0.00024391
-0.000244489
-0.000245081
-0.000245685
-0.000246305
-0.00024695
-0.000247625
-0.000248332
-0.000249067
-0.000249827
-0.000250606
-0.000251407
-0.000252235
-0.000253095
-0.000253988
-0.000254909
-0.000255851
-0.000256809
-0.000257785
-0.000258784
-0.000259813
-0.000260876
-0.000261975
-0.000263105
-0.00026426
-0.00026544
-0.000266644
-0.000267876
-0.000269139
-0.000270432
-0.000271753
-0.000273094
-0.000274449
-0.00027581
-0.000277176
-0.000278548
-0.00027993
-0.000281324
-0.000282729
-0.000284141
-0.000285553
-0.000286955
-0.00028834
-0.000289705
-0.000291049
-0.000292372
-0.000293672
-0.000294943
-0.000296176
-0.000297361
-0.000298489
-0.000299551
-0.000300543
-0.000301463
-0.000302311
-0.000303084
-0.00030378
-0.000304389
-0.000304903
-0.000305312
-0.000305609
-0.000305795
-0.000305877
-0.00030587
-0.000305778
-0.000305607
-4.33991e-05
-4.75942e-05
-5.33943e-05
-6.00688e-05
-6.68584e-05
-7.33969e-05
-7.9567e-05
-8.53392e-05
-9.0758e-05
-9.58878e-05
-0.000100752
-0.000105389
-0.00010983
-0.000114089
-0.000118184
-0.000122138
-0.000125967
-0.000129685
-0.000133302
-0.000136817
-0.000140237
-0.000143573
-0.000146828
-0.000150002
-0.000153099
-0.000156119
-0.00015906
-0.000161929
-0.000164732
-0.000167468
-0.000170135
-0.00017273
-0.000175263
-0.000177736
-0.000180145
-0.000182487
-0.000184768
-0.000186991
-0.00018915
-0.000191243
-0.000193269
-0.000195237
-0.000197152
-0.000199006
-0.000200795
-0.000202523
-0.000204197
-0.00020582
-0.000207385
-0.000208891
-0.000210345
-0.000211754
-0.000213122
-0.000214441
-0.000215705
-0.000216917
-0.00021809
-0.000219225
-0.000220319
-0.000221366
-0.000222366
-0.000223327
-0.000224256
-0.000225155
-0.000226019
-0.000226845
-0.000227638
-0.000228407
-0.000229157
-0.000229885
-0.000230587
-0.00023126
-0.00023191
-0.000232548
-0.000233177
-0.000233796
-0.000234398
-0.000234981
-0.000235552
-0.000236117
-0.000236683
-0.000237249
-0.000237809
-0.000238359
-0.000238902
-0.000239445
-0.000239994
-0.00024055
-0.000241107
-0.000241663
-0.000242216
-0.000242771
-0.000243337
-0.000243918
-0.000244516
-0.000245128
-0.000245749
-0.00024638
-0.000247028
-0.000247702
-0.000248406
-0.000249141
-0.000249902
-0.000250683
-0.000251482
-0.000252303
-0.000253151
-0.000254031
-0.00025494
-0.000255875
-0.00025683
-0.000257799
-0.000258784
-0.00025979
-0.000260825
-0.000261893
-0.000262996
-0.000264126
-0.00026528
-0.000266454
-0.000267651
-0.000268873
-0.000270125
-0.000271407
-0.000272715
-0.00027404
-0.000275374
-0.000276711
-0.00027805
-0.000279395
-0.000280749
-0.000282114
-0.000283489
-0.000284867
-0.000286243
-0.000287606
-0.000288951
-0.000290275
-0.000291578
-0.00029286
-0.00029412
-0.000295351
-0.000296545
-0.000297689
-0.000298775
-0.000299796
-0.000300748
-0.000301631
-0.000302448
-0.000303194
-0.000303867
-0.000304459
-0.00030496
-0.00030536
-0.000305653
-0.000305838
-0.00030592
-0.000305912
-0.000305803
-0.000305584
-5.51397e-05
-5.78559e-05
-6.18351e-05
-6.67332e-05
-7.20402e-05
-7.74454e-05
-8.27626e-05
-8.79034e-05
-9.28471e-05
-9.75884e-05
-0.000102142
-0.000106524
-0.000110747
-0.000114827
-0.000118774
-0.000122597
-0.000126304
-0.000129907
-0.00013342
-0.000136844
-0.000140185
-0.000143444
-0.000146623
-0.000149732
-0.000152772
-0.000155734
-0.000158623
-0.000161444
-0.000164202
-0.000166894
-0.000169517
-0.00017208
-0.000174587
-0.000177032
-0.000179411
-0.000181728
-0.00018399
-0.000186196
-0.000188339
-0.000190415
-0.000192434
-0.000194401
-0.000196311
-0.000198158
-0.000199942
-0.000201673
-0.000203355
-0.000204985
-0.000206557
-0.000208072
-0.000209537
-0.000210962
-0.000212344
-0.000213677
-0.000214958
-0.000216194
-0.000217392
-0.000218552
-0.000219667
-0.000220735
-0.000221759
-0.000222751
-0.000223714
-0.000224644
-0.000225535
-0.00022639
-0.000227215
-0.00022802
-0.000228807
-0.000229571
-0.000230306
-0.000231012
-0.000231699
-0.000232376
-0.000233045
-0.000233699
-0.000234336
-0.000234955
-0.000235563
-0.00023617
-0.000236778
-0.000237383
-0.00023798
-0.000238565
-0.000239144
-0.000239726
-0.000240316
-0.000240911
-0.000241506
-0.000242095
-0.000242681
-0.00024327
-0.000243872
-0.00024449
-0.000245122
-0.000245763
-0.000246412
-0.000247072
-0.000247749
-0.000248453
-0.000249186
-0.000249947
-0.00025073
-0.000251531
-0.000252349
-0.000253191
-0.00025406
-0.00025496
-0.000255888
-0.000256836
-0.000257801
-0.000258779
-0.000259774
-0.000260789
-0.000261833
-0.000262908
-0.000264013
-0.000265144
-0.000266295
-0.000267465
-0.000268655
-0.000269871
-0.000271114
-0.000272386
-0.000273681
-0.00027499
-0.000276304
-0.000277619
-0.000278935
-0.000280256
-0.000281584
-0.000282923
-0.00028427
-0.000285618
-0.000286959
-0.000288286
-0.000289593
-0.00029088
-0.000292147
-0.000293394
-0.000294619
-0.000295814
-0.000296971
-0.000298078
-0.000299128
-0.000300112
-0.00030103
-0.000301883
-0.000302672
-0.000303397
-0.000304052
-0.00030463
-0.000305121
-0.000305514
-0.000305803
-0.000305984
-0.000306065
-0.000306052
-0.000305929
-0.000305676
-6.46176e-05
-6.64249e-05
-6.92585e-05
-7.29369e-05
-7.71364e-05
-8.15892e-05
-8.61344e-05
-9.06717e-05
-9.51289e-05
-9.9478e-05
-0.000103715
-0.000107828
-0.000111819
-0.0001157
-0.000119479
-0.000123158
-0.000126738
-0.000130226
-0.00013363
-0.000136958
-0.000140213
-0.000143391
-0.000146498
-0.000149539
-0.000152511
-0.000155412
-0.000158248
-0.000161023
-0.000163736
-0.000166381
-0.000168964
-0.000171493
-0.000173968
-0.000176382
-0.000178734
-0.000181031
-0.000183275
-0.000185461
-0.000187583
-0.000189645
-0.000191657
-0.000193619
-0.000195522
-0.000197362
-0.000199145
-0.000200879
-0.000202565
-0.000204197
-0.000205773
-0.000207298
-0.00020878
-0.000210221
-0.000211614
-0.000212957
-0.000214254
-0.000215513
-0.000216735
-0.000217917
-0.000219052
-0.000220141
-0.000221192
-0.000222213
-0.000223206
-0.000224163
-0.000225081
-0.000225966
-0.000226825
-0.000227665
-0.000228485
-0.00022928
-0.000230045
-0.000230785
-0.00023151
-0.000232227
-0.000232932
-0.00023362
-0.000234289
-0.000234943
-0.00023559
-0.000236237
-0.000236884
-0.000237525
-0.000238156
-0.000238777
-0.000239394
-0.000240016
-0.000240644
-0.000241276
-0.000241905
-0.000242527
-0.000243146
-0.000243771
-0.000244408
-0.000245061
-0.000245725
-0.000246395
-0.000247071
-0.000247758
-0.000248465
-0.000249199
-0.00024996
-0.000250746
-0.000251551
-0.000252371
-0.000253208
-0.000254069
-0.00025496
-0.00025588
-0.000256825
-0.000257788
-0.000258763
-0.000259749
-0.000260752
-0.000261778
-0.000262832
-0.000263916
-0.000265025
-0.000266155
-0.000267303
-0.000268469
-0.000269654
-0.000270864
-0.000272102
-0.000273366
-0.000274649
-0.000275942
-0.000277238
-0.000278533
-0.000279828
-0.000281126
-0.000282433
-0.000283748
-0.00028507
-0.00028639
-0.0002877
-0.000288993
-0.000290266
-0.000291519
-0.000292754
-0.00029397
-0.000295164
-0.000296328
-0.000297453
-0.000298527
-0.000299543
-0.000300496
-0.000301385
-0.000302213
-0.00030298
-0.000303687
-0.000304329
-0.000304896
-0.00030538
-0.000305768
-0.000306054
-0.000306235
-0.000306314
-0.000306299
-0.000306168
-0.000305898
-7.24368e-05
-7.36574e-05
-7.57391e-05
-7.85828e-05
-8.19515e-05
-8.56491e-05
-8.95437e-05
-9.35266e-05
-9.7522e-05
-0.000101491
-0.000105407
-0.000109251
-0.000113013
-0.000116693
-0.000120293
-0.000123814
-0.000127259
-0.000130628
-0.000133924
-0.000137152
-0.000140314
-0.000143411
-0.000146446
-0.000149416
-0.000152319
-0.00015516
-0.000157942
-0.000160667
-0.00016333
-0.000165931
-0.000168479
-0.000170974
-0.000173412
-0.000175793
-0.00017812
-0.000180397
-0.00018262
-0.000184784
-0.000186888
-0.000188939
-0.000190943
-0.000192894
-0.000194786
-0.000196621
-0.000198406
-0.000200144
-0.000201832
-0.000203463
-0.000205042
-0.000206577
-0.000208073
-0.000209528
-0.000210932
-0.000212287
-0.000213601
-0.00021488
-0.000216123
-0.000217323
-0.000218476
-0.000219588
-0.000220666
-0.000221717
-0.000222735
-0.000223716
-0.00022466
-0.000225574
-0.000226467
-0.000227342
-0.000228193
-0.000229016
-0.000229809
-0.000230583
-0.000231346
-0.000232099
-0.000232837
-0.000233557
-0.000234259
-0.000234948
-0.000235634
-0.00023632
-0.000237003
-0.000237677
-0.00023834
-0.000238995
-0.000239651
-0.000240313
-0.000240978
-0.000241644
-0.000242303
-0.000242957
-0.000243609
-0.00024427
-0.000244943
-0.000245629
-0.000246323
-0.00024702
-0.000247723
-0.000248437
-0.000249173
-0.000249936
-0.000250724
-0.000251534
-0.000252359
-0.000253198
-0.000254056
-0.000254937
-0.000255848
-0.000256787
-0.000257748
-0.000258725
-0.00025971
-0.000260706
-0.000261718
-0.000262755
-0.000263819
-0.00026491
-0.000266024
-0.000267155
-0.0002683
-0.000269462
-0.000270643
-0.00027185
-0.000273083
-0.00027434
-0.000275613
-0.000276892
-0.00027817
-0.000279447
-0.000280724
-0.000282004
-0.000283291
-0.000284587
-0.000285886
-0.000287181
-0.000288462
-0.000289724
-0.000290967
-0.000292191
-0.000293397
-0.000294586
-0.000295753
-0.00029689
-0.000297988
-0.000299033
-0.000300021
-0.000300946
-0.000301811
-0.000302618
-0.000303368
-0.000304062
-0.000304694
-0.000305256
-0.000305735
-0.000306121
-0.000306407
-0.000306589
-0.000306671
-0.000306658
-0.000306527
-0.000306255
-7.89769e-05
-7.98356e-05
-8.14208e-05
-8.36661e-05
-8.64172e-05
-8.95299e-05
-9.28803e-05
-9.63812e-05
-9.99635e-05
-0.000103572
-0.000107174
-0.000110752
-0.000114288
-0.00011777
-0.000121191
-0.000124554
-0.000127858
-0.000131104
-0.000134291
-0.000137417
-0.000140485
-0.000143499
-0.000146457
-0.000149354
-0.00015219
-0.000154973
-0.000157701
-0.000160371
-0.000162982
-0.000165543
-0.000168055
-0.000170514
-0.000172916
-0.000175266
-0.000177569
-0.000179823
-0.000182022
-0.000184161
-0.00018625
-0.000188293
-0.000190288
-0.000192225
-0.000194106
-0.000195936
-0.000197722
-0.000199461
-0.000201148
-0.00020278
-0.000204365
-0.00020591
-0.000207418
-0.00020888
-0.000210293
-0.000211663
-0.000212996
-0.000214295
-0.000215555
-0.000216769
-0.00021794
-0.000219074
-0.000220181
-0.000221258
-0.000222299
-0.000223302
-0.000224271
-0.000225216
-0.000226142
-0.000227048
-0.000227927
-0.000228776
-0.0002296
-0.000230408
-0.000231206
-0.000231992
-0.000232762
-0.000233512
-0.000234245
-0.000234969
-0.000235693
-0.000236417
-0.000237134
-0.00023784
-0.000238533
-0.000239223
-0.000239916
-0.000240615
-0.000241316
-0.000242013
-0.000242703
-0.000243386
-0.000244072
-0.000244768
-0.000245476
-0.000246193
-0.000246915
-0.000247638
-0.000248368
-0.00024911
-0.000249875
-0.000250666
-0.000251481
-0.000252312
-0.000253156
-0.000254014
-0.000254892
-0.000255795
-0.000256726
-0.000257683
-0.000258659
-0.000259647
-0.000260643
-0.00026165
-0.000262673
-0.000263721
-0.000264795
-0.000265894
-0.000267011
-0.000268142
-0.000269286
-0.000270445
-0.000271625
-0.00027283
-0.00027406
-0.000275311
-0.000276574
-0.000277839
-0.000279103
-0.000280363
-0.000281624
-0.000282889
-0.000284162
-0.00028544
-0.000286719
-0.000287989
-0.000289244
-0.00029048
-0.000291695
-0.000292893
-0.000294075
-0.000295241
-0.000296385
-0.000297499
-0.000298572
-0.000299593
-0.000300556
-0.000301459
-0.000302304
-0.000303094
-0.000303832
-0.000304517
-0.000305144
-0.000305702
-0.00030618
-0.000306567
-0.000306856
-0.000307043
-0.000307132
-0.000307127
-0.000307006
-0.000306745
-8.45275e-05
-8.51689e-05
-8.64168e-05
-8.82328e-05
-9.05271e-05
-9.31733e-05
-9.60773e-05
-9.91714e-05
-0.000102389
-0.00010567
-0.000108982
-0.000112304
-0.000115616
-0.000118902
-0.000122151
-0.000125358
-0.000128522
-0.000131644
-0.000134718
-0.000137742
-0.00014072
-0.000143649
-0.000146525
-0.000149348
-0.00015212
-0.000154844
-0.000157515
-0.00016013
-0.000162694
-0.000165214
-0.000167687
-0.000170107
-0.000172474
-0.000174797
-0.000177076
-0.000179304
-0.000181476
-0.000183595
-0.000185671
-0.000187702
-0.000189683
-0.000191607
-0.000193479
-0.000195307
-0.000197092
-0.000198828
-0.000200511
-0.000202144
-0.000203738
-0.000205295
-0.00020681
-0.000208277
-0.000209699
-0.000211084
-0.000212436
-0.000213752
-0.000215026
-0.000216255
-0.000217444
-0.000218603
-0.000219734
-0.000220834
-0.000221896
-0.000222921
-0.000223917
-0.000224892
-0.000225848
-0.000226782
-0.000227686
-0.00022856
-0.000229415
-0.000230257
-0.000231089
-0.000231907
-0.000232705
-0.000233483
-0.000234249
-0.000235009
-0.000235769
-0.000236527
-0.000237275
-0.00023801
-0.000238736
-0.00023946
-0.000240189
-0.000240923
-0.000241657
-0.000242385
-0.000243103
-0.000243817
-0.000244536
-0.000245267
-0.000246008
-0.000246754
-0.000247502
-0.00024825
-0.000249006
-0.000249778
-0.000250572
-0.00025139
-0.000252228
-0.00025308
-0.000253943
-0.00025482
-0.000255718
-0.000256643
-0.000257595
-0.000258569
-0.000259559
-0.000260557
-0.000261563
-0.000262581
-0.000263618
-0.000264678
-0.000265762
-0.000266867
-0.000267988
-0.000269119
-0.000270262
-0.00027142
-0.0002726
-0.000273804
-0.000275032
-0.000276278
-0.000277531
-0.000278785
-0.000280034
-0.000281281
-0.000282529
-0.000283782
-0.000285043
-0.000286307
-0.000287567
-0.000288816
-0.000290047
-0.000291258
-0.000292449
-0.000293625
-0.000294787
-0.000295933
-0.000297059
-0.000298153
-0.000299205
-0.000300204
-0.000301147
-0.000302031
-0.00030286
-0.000303639
-0.000304369
-0.000305048
-0.000305673
-0.000306231
-0.000306711
-0.000307102
-0.000307398
-0.000307594
-0.000307695
-0.000307704
-0.0003076
-0.000307363
-8.93039e-05
-8.98027e-05
-9.08242e-05
-9.23423e-05
-9.42792e-05
-9.65597e-05
-9.91058e-05
-0.000101852
-0.000104747
-0.00010774
-0.000110793
-0.000113878
-0.000116975
-0.00012007
-0.000123151
-0.000126208
-0.000129238
-0.000132234
-0.000135195
-0.00013812
-0.000141007
-0.00014385
-0.000146644
-0.000149395
-0.000152104
-0.000154767
-0.000157378
-0.000159941
-0.000162463
-0.00016494
-0.000167369
-0.00016975
-0.000172088
-0.000174384
-0.000176635
-0.000178834
-0.000180982
-0.000183085
-0.000185147
-0.000187163
-0.000189126
-0.000191037
-0.000192904
-0.00019473
-0.000196511
-0.000198241
-0.00019992
-0.000201558
-0.000203161
-0.000204725
-0.000206245
-0.000207718
-0.000209151
-0.000210551
-0.000211919
-0.000213249
-0.000214535
-0.000215778
-0.000216988
-0.000218171
-0.000219325
-0.000220443
-0.000221524
-0.000222571
-0.000223595
-0.0002246
-0.000225585
-0.000226542
-0.000227469
-0.00022837
-0.000229256
-0.000230131
-0.000230994
-0.00023184
-0.000232665
-0.000233472
-0.00023427
-0.000235066
-0.000235861
-0.00023665
-0.000237426
-0.00023819
-0.000238948
-0.000239707
-0.000240471
-0.000241238
-0.000242002
-0.000242757
-0.000243503
-0.000244249
-0.000245002
-0.000245765
-0.000246537
-0.000247311
-0.000248083
-0.000248857
-0.000249639
-0.000250439
-0.000251262
-0.000252107
-0.000252967
-0.000253838
-0.000254719
-0.000255616
-0.000256535
-0.000257481
-0.000258453
-0.000259444
-0.000260447
-0.000261456
-0.000262472
-0.000263502
-0.000264552
-0.000265625
-0.000266719
-0.000267831
-0.000268955
-0.000270087
-0.000271229
-0.000272388
-0.000273569
-0.000274774
-0.000276
-0.00027724
-0.000278484
-0.000279727
-0.000280966
-0.000282202
-0.00028344
-0.000284685
-0.000285935
-0.000287186
-0.00028843
-0.000289659
-0.000290868
-0.000292058
-0.000293229
-0.000294386
-0.000295531
-0.000296662
-0.000297772
-0.000298849
-0.000299883
-0.000300865
-0.000301791
-0.000302661
-0.000303479
-0.000304249
-0.000304974
-0.000305652
-0.000306277
-0.000306837
-0.000307323
-0.000307722
-0.000308028
-0.000308238
-0.000308356
-0.000308384
-0.000308305
-0.000308101
-9.34454e-05
-9.38583e-05
-9.47298e-05
-9.60221e-05
-9.76916e-05
-9.96899e-05
-0.000101945
-0.000104399
-0.000107015
-0.000109753
-0.000112572
-0.000115441
-0.000118341
-0.000121256
-0.000124175
-0.000127089
-0.000129987
-0.000132862
-0.000135715
-0.000138542
-0.000141336
-0.000144092
-0.00014681
-0.000149492
-0.000152136
-0.000154733
-0.000157287
-0.000159803
-0.00016228
-0.000164713
-0.000167099
-0.000169445
-0.000171754
-0.000174022
-0.000176242
-0.000178411
-0.000180539
-0.000182627
-0.000184673
-0.00018667
-0.000188616
-0.000190518
-0.00019238
-0.000194201
-0.000195975
-0.000197699
-0.000199378
-0.000201021
-0.00020263
-0.000204198
-0.00020572
-0.000207201
-0.000208647
-0.000210063
-0.000211445
-0.000212784
-0.00021408
-0.00021534
-0.000216572
-0.000217776
-0.000218949
-0.000220085
-0.000221184
-0.000222254
-0.000223305
-0.000224338
-0.000225347
-0.000226326
-0.000227277
-0.000228206
-0.000229123
-0.000230029
-0.00023092
-0.000231792
-0.000232643
-0.000233479
-0.00023431
-0.00023514
-0.000235968
-0.000236785
-0.000237588
-0.00023838
-0.00023917
-0.000239963
-0.000240761
-0.000241559
-0.00024235
-0.00024313
-0.000243905
-0.000244682
-0.000245469
-0.000246264
-0.000247064
-0.000247863
-0.00024866
-0.000249458
-0.000250267
-0.000251096
-0.000251947
-0.000252816
-0.000253696
-0.000254585
-0.000255485
-0.000256403
-0.000257343
-0.00025831
-0.000259301
-0.000260307
-0.000261322
-0.000262341
-0.000263369
-0.000264413
-0.000265476
-0.000266562
-0.000267667
-0.000268785
-0.000269911
-0.000271045
-0.000272188
-0.000273349
-0.000274532
-0.000275738
-0.000276963
-0.000278198
-0.000279434
-0.000280668
-0.000281898
-0.000283126
-0.000284358
-0.000285596
-0.000286837
-0.000288077
-0.000289306
-0.000290517
-0.000291707
-0.000292878
-0.000294033
-0.000295175
-0.000296307
-0.000297426
-0.000298522
-0.000299586
-0.000300606
-0.000301573
-0.000302486
-0.000303346
-0.000304156
-0.000304922
-0.000305645
-0.000306324
-0.000306952
-0.000307518
-0.000308011
-0.000308421
-0.000308742
-0.00030897
-0.000309109
-0.000309162
-0.000309114
-0.000308952
-9.70646e-05
-9.74282e-05
-9.81875e-05
-9.9321e-05
-0.00010079
-0.000102559
-0.000104579
-0.000106798
-0.000109179
-0.00011169
-0.000114296
-0.000116972
-0.000119693
-0.000122442
-0.000125211
-0.000127985
-0.000130756
-0.000133519
-0.000136269
-0.000138997
-0.000141698
-0.000144371
-0.000147016
-0.00014963
-0.000152205
-0.000154741
-0.000157242
-0.000159711
-0.000162141
-0.000164528
-0.000166876
-0.000169189
-0.000171468
-0.000173704
-0.000175892
-0.000178037
-0.000180146
-0.000182218
-0.000184244
-0.000186222
-0.000188154
-0.000190048
-0.000191905
-0.000193718
-0.000195481
-0.0001972
-0.000198883
-0.000200532
-0.000202143
-0.000203711
-0.000205237
-0.000206727
-0.000208187
-0.000209616
-0.000211007
-0.000212355
-0.000213664
-0.000214941
-0.000216193
-0.000217417
-0.000218605
-0.000219756
-0.000220875
-0.00022197
-0.000223048
-0.000224106
-0.000225135
-0.000226134
-0.000227108
-0.000228066
-0.000229014
-0.000229949
-0.000230866
-0.000231761
-0.000232638
-0.000233504
-0.000234368
-0.000235231
-0.000236087
-0.00023693
-0.000237759
-0.00023858
-0.000239401
-0.000240228
-0.000241058
-0.000241884
-0.0002427
-0.000243506
-0.00024431
-0.000245118
-0.000245937
-0.000246762
-0.000247588
-0.00024841
-0.00024923
-0.000250053
-0.000250891
-0.000251748
-0.000252626
-0.000253517
-0.000254416
-0.000255322
-0.000256241
-0.000257179
-0.000258142
-0.00025913
-0.000260138
-0.000261158
-0.000262184
-0.000263215
-0.000264256
-0.000265313
-0.000266392
-0.000267491
-0.000268606
-0.00026973
-0.000270859
-0.000271994
-0.00027314
-0.000274304
-0.00027549
-0.000276698
-0.000277921
-0.000279152
-0.000280381
-0.000281607
-0.00028283
-0.000284053
-0.000285281
-0.000286515
-0.000287749
-0.000288978
-0.000290194
-0.00029139
-0.000292564
-0.000293719
-0.00029486
-0.000295992
-0.000297114
-0.000298223
-0.000299309
-0.000300362
-0.000301371
-0.000302328
-0.000303232
-0.000304085
-0.000304891
-0.000305655
-0.00030638
-0.000307062
-0.000307696
-0.000308269
-0.000308773
-0.000309197
-0.000309535
-0.000309785
-0.000309949
-0.000310032
-0.000310021
-0.000309906
-0.000100245
-0.000100572
-0.000101258
-0.000102282
-0.000103596
-0.000105182
-0.000107009
-0.000109036
-0.000111221
-0.000113536
-0.000115956
-0.000118456
-0.000121015
-0.000123615
-0.000126243
-0.000128886
-0.000131539
-0.000134195
-0.000136843
-0.000139475
-0.000142088
-0.000144683
-0.000147257
-0.000149799
-0.000152308
-0.000154788
-0.00015724
-0.000159658
-0.000162039
-0.000164383
-0.000166696
-0.000168979
-0.000171224
-0.000173425
-0.000175585
-0.00017771
-0.000179801
-0.000181851
-0.000183856
-0.000185816
-0.000187738
-0.000189625
-0.000191473
-0.000193275
-0.00019503
-0.000196747
-0.000198433
-0.000200085
-0.000201696
-0.000203265
-0.000204795
-0.000206296
-0.000207769
-0.000209208
-0.000210605
-0.000211961
-0.000213284
-0.000214581
-0.000215851
-0.00021709
-0.000218291
-0.000219457
-0.000220596
-0.000221717
-0.00022282
-0.000223899
-0.000224946
-0.000225966
-0.000226965
-0.000227952
-0.000228928
-0.000229889
-0.000230829
-0.000231747
-0.00023265
-0.000233547
-0.000234443
-0.000235335
-0.000236217
-0.000237084
-0.000237939
-0.00023879
-0.000239644
-0.000240503
-0.000241362
-0.000242213
-0.000243052
-0.000243884
-0.000244717
-0.000245557
-0.000246406
-0.000247258
-0.000248108
-0.000248952
-0.000249795
-0.000250645
-0.000251511
-0.000252396
-0.000253298
-0.000254208
-0.000255125
-0.000256049
-0.000256987
-0.000257946
-0.000258931
-0.000259939
-0.000260964
-0.000261996
-0.000263033
-0.000264077
-0.000265132
-0.000266205
-0.000267299
-0.000268411
-0.000269535
-0.000270665
-0.000271797
-0.000272936
-0.000274086
-0.000275254
-0.000276444
-0.000277653
-0.000278875
-0.000280101
-0.000281326
-0.000282546
-0.000283764
-0.000284984
-0.00028621
-0.00028744
-0.00028867
-0.00028989
-0.000291094
-0.000292276
-0.000293437
-0.00029458
-0.000295711
-0.000296834
-0.00029795
-0.000299052
-0.000300131
-0.000301177
-0.000302178
-0.000303128
-0.000304026
-0.000304876
-0.000305681
-0.000306447
-0.000307176
-0.000307864
-0.000308505
-0.000309088
-0.000309604
-0.000310045
-0.000310403
-0.000310678
-0.000310872
-0.000310988
-0.000311018
-0.000310957
-0.000103034
-0.00010335
-0.000103987
-0.000104928
-0.000106132
-0.000107577
-0.000109247
-0.00011111
-0.000113131
-0.000115282
-0.000117539
-0.000119883
-0.000122297
-0.000124761
-0.000127259
-0.000129784
-0.000132328
-0.000134879
-0.000137428
-0.00013997
-0.000142503
-0.000145023
-0.000147522
-0.000149994
-0.000152444
-0.000154871
-0.000157272
-0.000159638
-0.000161972
-0.000164279
-0.00016656
-0.000168808
-0.000171016
-0.000173185
-0.000175322
-0.000177427
-0.000179497
-0.000181524
-0.000183508
-0.000185454
-0.000187368
-0.000189246
-0.000191081
-0.000192871
-0.000194621
-0.000196339
-0.000198026
-0.000199677
-0.000201287
-0.000202856
-0.000204395
-0.000205907
-0.00020739
-0.000208834
-0.000210237
-0.000211603
-0.000212942
-0.000214257
-0.000215542
-0.000216793
-0.000218006
-0.000219189
-0.00022035
-0.000221495
-0.000222619
-0.000223714
-0.00022478
-0.000225821
-0.000226846
-0.000227861
-0.000228864
-0.000229848
-0.000230808
-0.000231749
-0.00023268
-0.000233609
-0.000234535
-0.000235453
-0.000236358
-0.000237248
-0.000238129
-0.00023901
-0.000239896
-0.000240785
-0.00024167
-0.000242544
-0.000243407
-0.000244265
-0.000245128
-0.000245998
-0.000246875
-0.000247753
-0.000248624
-0.00024949
-0.000250356
-0.000251233
-0.000252128
-0.000253039
-0.000253962
-0.000254891
-0.000255825
-0.000256767
-0.000257725
-0.000258706
-0.000259712
-0.000260739
-0.000261778
-0.000262823
-0.000263872
-0.000264928
-0.000265999
-0.000267088
-0.000268197
-0.000269322
-0.000270455
-0.000271591
-0.000272727
-0.00027387
-0.000275026
-0.0002762
-0.000277394
-0.000278605
-0.000279825
-0.000281048
-0.000282267
-0.000283483
-0.000284699
-0.000285918
-0.000287144
-0.000288373
-0.000289598
-0.000290811
-0.000292005
-0.000293177
-0.000294328
-0.000295461
-0.000296585
-0.000297703
-0.000298815
-0.000299913
-0.000300988
-0.000302028
-0.000303024
-0.000303971
-0.000304867
-0.000305716
-0.000306524
-0.000307295
-0.00030803
-0.000308726
-0.000309376
-0.000309972
-0.000310502
-0.000310961
-0.000311343
-0.000311646
-0.000311873
-0.000312026
-0.000312101
-0.000312095
-0.000105483
-0.000105813
-0.000106413
-0.000107293
-0.000108416
-0.000109758
-0.000111301
-0.000113026
-0.000114908
-0.000116919
-0.000119039
-0.000121248
-0.00012353
-0.000125869
-0.000128252
-0.000130671
-0.000133111
-0.000135562
-0.000138018
-0.000140478
-0.000142935
-0.00014538
-0.000147806
-0.000150215
-0.000152609
-0.000154983
-0.00015733
-0.000159648
-0.000161941
-0.000164213
-0.000166459
-0.00016867
-0.000170843
-0.000172985
-0.0001751
-0.000177185