/*--------------------------------*- C++ -*----------------------------------*\
  =========                 |
  \\      /  F ield         | OpenFOAM: The Open Source CFD Toolbox
   \\    /   O peration     | Website:  https://openfoam.org
    \\  /    A nd           | Version:  7
     \\/     M anipulation  |
\*---------------------------------------------------------------------------*/
FoamFile
{
    version     2.0;
    format      ascii;
    class       surfaceScalarField;
    location    "0.2";
    object      phi;
}
// * * * * * * * * * * * * * * * * * * * * * * * * * * * * * * * * * * * * * //

dimensions      [0 3 -1 0 0 0 0];

internalField   nonuniform List<scalar> 
101920
(
1.51212e-14
2.8319e-14
2.32116e-12
-2.30707e-12
3.44036e-12
-1.11785e-12
4.52476e-12
-1.08328e-12
5.30965e-12
-7.84527e-13
5.90704e-12
-5.97878e-13
6.39182e-12
-4.86911e-13
6.79661e-12
-4.03928e-13
7.1235e-12
-3.27094e-13
7.37341e-12
-2.49456e-13
7.54356e-12
-1.69621e-13
7.62118e-12
-7.61481e-14
7.60063e-12
2.03597e-14
7.4776e-12
1.23339e-13
7.24395e-12
2.33047e-13
6.89898e-12
3.4487e-13
6.44013e-12
4.58522e-13
5.86664e-12
5.72102e-13
5.1832e-12
6.84043e-13
4.38662e-12
7.965e-13
3.47644e-12
9.10664e-13
2.45906e-12
1.0202e-12
1.33561e-12
1.12318e-12
1.10156e-13
1.22662e-12
-1.21518e-12
1.32516e-12
-2.63392e-12
1.41761e-12
-4.14011e-12
1.5077e-12
-5.73097e-12
1.59152e-12
-7.39814e-12
1.66794e-12
-9.13606e-12
1.73849e-12
-1.09424e-11
1.80456e-12
-1.28121e-11
1.86791e-12
-1.47394e-11
1.92579e-12
-1.67174e-11
1.9759e-12
-1.87399e-11
2.02134e-12
-2.08034e-11
2.06223e-12
-2.29021e-11
2.09615e-12
-2.50283e-11
2.12438e-12
-2.71779e-11
2.14833e-12
-2.93477e-11
2.16843e-12
-3.15311e-11
2.18409e-12
-3.3722e-11
2.19253e-12
-3.59149e-11
2.19367e-12
-3.81042e-11
2.19084e-12
-4.02877e-11
2.18453e-12
-4.24614e-11
2.17281e-12
-4.4618e-11
2.15589e-12
-4.67529e-11
2.13524e-12
-4.88635e-11
2.11113e-12
-5.09458e-11
2.08311e-12
-5.29947e-11
2.05012e-12
-5.50057e-11
2.0111e-12
-5.69756e-11
1.96805e-12
-5.89017e-11
1.92432e-12
-6.07819e-11
1.8794e-12
-6.26123e-11
1.83038e-12
-6.43871e-11
1.77578e-12
-6.61022e-11
1.71684e-12
-6.7757e-11
1.65566e-12
-6.93503e-11
1.59309e-12
-7.08789e-11
1.52864e-12
-7.23397e-11
1.46125e-12
-7.37305e-11
1.39046e-12
-7.50491e-11
1.31748e-12
-7.62947e-11
1.24389e-12
-7.74658e-11
1.16931e-12
-7.85599e-11
1.09267e-12
-7.95743e-11
1.01424e-12
-8.05074e-11
9.3429e-13
-8.13594e-11
8.5273e-13
-8.21295e-11
7.70482e-13
-8.28161e-11
6.88019e-13
-8.34175e-11
6.03758e-13
-8.39327e-11
5.16584e-13
-8.43604e-11
4.27882e-13
-8.4701e-11
3.39617e-13
-8.49557e-11
2.52361e-13
-8.5124e-11
1.65768e-13
-8.52039e-11
7.93405e-14
-8.51949e-11
-7.64016e-15
-8.50982e-11
-9.54621e-14
-8.49147e-11
-1.83366e-13
-8.46448e-11
-2.70197e-13
-8.42887e-11
-3.56044e-13
-8.38461e-11
-4.42179e-13
-8.33171e-11
-5.28956e-13
-8.27024e-11
-6.15016e-13
-8.2004e-11
-6.98997e-13
-8.1224e-11
-7.80882e-13
-8.03631e-11
-8.61457e-13
-7.94216e-11
-9.4123e-13
-7.84002e-11
-1.02036e-12
-7.73006e-11
-1.09868e-12
-7.61248e-11
-1.17537e-12
-7.48751e-11
-1.24937e-12
-7.35544e-11
-1.3204e-12
-7.21649e-11
-1.3893e-12
-7.07087e-11
-1.45686e-12
-6.91868e-11
-1.52278e-12
-6.76011e-11
-1.58634e-12
-6.59544e-11
-1.64692e-12
-6.42501e-11
-1.70404e-12
-6.24916e-11
-1.75771e-12
-6.06823e-11
-1.80841e-12
-5.88252e-11
-1.85683e-12
-5.69227e-11
-1.90318e-12
-5.49775e-11
-1.94651e-12
-5.2993e-11
-1.98555e-12
-5.09734e-11
-2.01994e-12
-4.89233e-11
-2.04994e-12
-4.68464e-11
-2.07605e-12
-4.47471e-11
-2.09859e-12
-4.26297e-11
-2.11752e-12
-4.04977e-11
-2.13269e-12
-3.83552e-11
-2.14351e-12
-3.62062e-11
-2.14907e-12
-3.40559e-11
-2.14927e-12
-3.19105e-11
-2.14447e-12
-2.97753e-11
-2.13493e-12
-2.76544e-11
-2.12087e-12
-2.55525e-11
-2.10205e-12
-2.3474e-11
-2.0782e-12
-2.14245e-11
-2.04931e-12
-1.94103e-11
-2.01471e-12
-1.74371e-11
-1.97372e-12
-1.55106e-11
-1.9267e-12
-1.36365e-11
-1.87451e-12
-1.18193e-11
-1.81776e-12
-1.00637e-11
-1.75648e-12
-8.37447e-12
-1.69e-12
-6.75688e-12
-1.61781e-12
-5.21681e-12
-1.53998e-12
-3.76024e-12
-1.45663e-12
-2.39219e-12
-1.36795e-12
-1.11749e-12
-1.27456e-12
5.89315e-14
-1.17695e-12
1.13308e-12
-1.07524e-12
2.10145e-12
-9.69473e-13
2.96072e-12
-8.59634e-13
3.70796e-12
-7.46131e-13
4.33974e-12
-6.29996e-13
4.85265e-12
-5.11986e-13
5.24504e-12
-3.92414e-13
5.51626e-12
-2.71778e-13
5.66618e-12
-1.50835e-13
5.69664e-12
-3.08476e-14
5.61124e-12
8.61394e-14
5.41427e-12
1.98114e-13
5.11122e-12
3.03825e-13
4.70937e-12
4.02003e-13
4.21832e-12
4.90486e-13
3.65162e-12
5.65991e-13
3.02782e-12
6.23847e-13
2.3705e-12
6.57772e-13
1.71e-12
6.60396e-13
1.08638e-12
6.23243e-13
5.49873e-13
5.36363e-13
1.59769e-13
3.89805e-13
-2.25466e-14
1.81797e-13
-2.30045e-14
-1.88795e-12
1.91516e-12
-1.25001e-12
-2.94411e-12
1.06454e-12
-3.4337e-12
3.27934e-12
-3.29786e-12
5.42275e-12
-2.92762e-12
7.37775e-12
-2.55087e-12
9.10931e-12
-2.21692e-12
1.05976e-11
-1.89352e-12
1.18297e-11
-1.55881e-12
1.27893e-11
-1.21172e-12
1.34589e-11
-8.40148e-13
1.3827e-11
-4.46407e-13
1.38782e-11
-3.06575e-14
1.36009e-11
4e-13
1.2992e-11
8.42011e-13
1.20435e-11
1.29454e-12
1.07521e-11
1.74929e-12
9.12163e-12
2.20302e-12
7.1516e-12
2.65236e-12
4.84746e-12
3.09775e-12
2.21985e-12
3.53704e-12
-7.27885e-13
3.96344e-12
-3.98357e-12
4.3791e-12
-7.5369e-12
4.77933e-12
-1.13742e-11
5.16082e-12
-1.5482e-11
5.52564e-12
-1.98501e-11
5.87243e-12
-2.44606e-11
6.19953e-12
-2.92969e-11
6.50507e-12
-3.43474e-11
6.78908e-12
-3.95953e-11
7.05506e-12
-4.50241e-11
7.30073e-12
-5.06193e-11
7.52244e-12
-5.6363e-11
7.72258e-12
-6.22404e-11
7.90234e-12
-6.8236e-11
8.06006e-12
-7.4331e-11
8.19526e-12
-8.05113e-11
8.308e-12
-8.67629e-11
8.40019e-12
-9.30686e-11
8.47395e-12
-9.94129e-11
8.52701e-12
-1.05781e-10
8.55743e-12
-1.12159e-10
8.56838e-12
-1.1853e-10
8.56212e-12
-1.24884e-10
8.53731e-12
-1.31204e-10
8.49319e-12
-1.37477e-10
8.43003e-12
-1.43692e-10
8.34892e-12
-1.49836e-10
8.25247e-12
-1.55895e-10
8.14149e-12
-1.61858e-10
8.01395e-12
-1.67715e-10
7.86928e-12
-1.73454e-10
7.70984e-12
-1.79065e-10
7.53753e-12
-1.84538e-10
7.35203e-12
-1.89863e-10
7.15282e-12
-1.9503e-10
6.94043e-12
-2.0003e-10
6.71583e-12
-2.04857e-10
6.4806e-12
-2.09501e-10
6.23645e-12
-2.13955e-10
5.9831e-12
-2.18213e-10
5.71931e-12
-2.22268e-10
5.44602e-12
-2.26113e-10
5.16511e-12
-2.29743e-10
4.87677e-12
-2.33153e-10
4.58068e-12
-2.36339e-10
4.27759e-12
-2.39293e-10
3.96837e-12
-2.42014e-10
3.65333e-12
-2.44497e-10
3.33311e-12
-2.46736e-10
3.00891e-12
-2.48731e-10
2.68107e-12
-2.50479e-10
2.34911e-12
-2.51977e-10
2.01348e-12
-2.53221e-10
1.67511e-12
-2.5421e-10
1.33401e-12
-2.54945e-10
9.90534e-13
-2.55425e-10
6.46157e-13
-2.55648e-10
3.01852e-13
-2.55616e-10
-4.25379e-14
-2.55327e-10
-3.86844e-13
-2.54781e-10
-7.30106e-13
-2.5398e-10
-1.07175e-12
-2.52926e-10
-1.41179e-12
-2.5162e-10
-1.75003e-12
-2.50064e-10
-2.08579e-12
-2.48258e-10
-2.41845e-12
-2.46207e-10
-2.7475e-12
-2.43915e-10
-3.07229e-12
-2.41384e-10
-3.39228e-12
-2.38617e-10
-3.7075e-12
-2.3562e-10
-4.01794e-12
-2.32397e-10
-4.32283e-12
-2.28952e-10
-4.62065e-12
-2.25291e-10
-4.91028e-12
-2.2142e-10
-5.19147e-12
-2.17346e-10
-5.46435e-12
-2.13073e-10
-5.72912e-12
-2.08609e-10
-5.98576e-12
-2.03961e-10
-6.23372e-12
-1.99137e-10
-6.47169e-12
-1.94145e-10
-6.6978e-12
-1.88992e-10
-6.91135e-12
-1.83688e-10
-7.11309e-12
-1.78242e-10
-7.30364e-12
-1.72662e-10
-7.48266e-12
-1.66958e-10
-7.64914e-12
-1.61142e-10
-7.80178e-12
-1.55224e-10
-7.93944e-12
-1.49215e-10
-8.06098e-12
-1.43127e-10
-8.16571e-12
-1.36971e-10
-8.25429e-12
-1.30759e-10
-8.32761e-12
-1.24505e-10
-8.38542e-12
-1.18222e-10
-8.42641e-12
-1.11923e-10
-8.44878e-12
-1.05621e-10
-8.4517e-12
-9.93295e-11
-8.43556e-12
-9.30638e-11
-8.40059e-12
-8.68372e-11
-8.34672e-12
-8.06652e-11
-8.27377e-12
-7.45628e-11
-8.181e-12
-6.85448e-11
-8.06776e-12
-6.26267e-11
-7.93359e-12
-5.68239e-11
-7.77778e-12
-5.11519e-11
-7.60028e-12
-4.56261e-11
-7.40188e-12
-4.02616e-11
-7.18312e-12
-3.50735e-11
-6.94428e-12
-3.00777e-11
-6.68548e-12
-2.52896e-11
-6.40642e-12
-2.07237e-11
-6.10697e-12
-1.63944e-11
-5.7875e-12
-1.23153e-11
-5.44837e-12
-8.49962e-12
-5.09058e-12
-4.96023e-12
-4.7159e-12
-1.70915e-12
-4.32569e-12
1.24267e-12
-3.92078e-12
3.88481e-12
-3.5021e-12
6.20857e-12
-3.0708e-12
8.20699e-12
-2.62876e-12
9.87441e-12
-2.17882e-12
1.12074e-11
-1.72395e-12
1.22052e-11
-1.26728e-12
1.28684e-11
-8.12708e-13
1.3201e-11
-3.64354e-13
1.32117e-11
7.34662e-14
1.29139e-11
4.95144e-13
1.23251e-11
8.93478e-13
1.14685e-11
1.2603e-12
1.0374e-11
1.58615e-12
9.08024e-12
1.85944e-12
7.63687e-12
2.06611e-12
6.10547e-12
2.18862e-12
4.56014e-12
2.20543e-12
3.08981e-12
2.0928e-12
1.79804e-12
1.8274e-12
7.96289e-13
1.39127e-12
1.84489e-13
7.93386e-13
1.60987e-13
-3.03421e-13
2.21994e-12
-5.50417e-13
-2.69873e-12
9.37814e-13
-4.9211e-12
3.11718e-12
-5.47714e-12
5.56862e-12
-5.37667e-12
8.0307e-12
-5.01465e-12
1.03352e-11
-4.52061e-12
1.23722e-11
-3.92846e-12
1.40659e-11
-3.2529e-12
1.53618e-11
-2.50543e-12
1.6214e-11
-1.69282e-12
1.65927e-11
-8.24049e-13
1.64692e-11
9.11566e-14
1.58264e-11
1.04144e-12
1.46494e-11
2.0193e-12
1.29301e-11
3.01143e-12
1.06689e-11
4.01212e-12
7.86064e-12
5.01146e-12
4.51174e-12
6.00194e-12
6.32334e-13
6.98032e-12
-3.77005e-12
7.93836e-12
-8.67936e-12
8.87378e-12
-1.40818e-11
9.78137e-12
-1.99594e-11
1.06555e-11
-2.62906e-11
1.14946e-11
-3.30584e-11
1.22944e-11
-4.02393e-11
1.30534e-11
-4.7809e-11
1.37697e-11
-5.57465e-11
1.44398e-11
-6.40266e-11
1.50663e-11
-7.26228e-11
1.56498e-11
-8.15103e-11
1.61857e-11
-9.06633e-11
1.66738e-11
-1.00057e-10
1.71147e-11
-1.09666e-10
1.7508e-11
-1.19462e-10
1.78544e-11
-1.29421e-10
1.81529e-11
-1.39518e-10
1.84037e-11
-1.49726e-10
1.86097e-11
-1.60021e-10
1.87712e-11
-1.70379e-10
1.88856e-11
-1.80774e-10
1.89541e-11
-1.91184e-10
1.89795e-11
-2.01587e-10
1.89631e-11
-2.11957e-10
1.89062e-11
-2.22272e-10
1.88089e-11
-2.32511e-10
1.86708e-11
-2.42655e-10
1.84936e-11
-2.52682e-10
1.82803e-11
-2.62572e-10
1.80311e-11
-2.72307e-10
1.77461e-11
-2.81867e-10
1.74275e-11
-2.91235e-10
1.70779e-11
-3.00395e-10
1.66978e-11
-3.09329e-10
1.62873e-11
-3.18021e-10
1.58468e-11
-3.26458e-10
1.53779e-11
-3.34625e-10
1.48824e-11
-3.42507e-10
1.43632e-11
-3.50093e-10
1.38221e-11
-3.57369e-10
1.32588e-11
-3.64325e-10
1.26735e-11
-3.7095e-10
1.20688e-11
-3.77234e-10
1.14467e-11
-3.83166e-10
1.08076e-11
-3.88738e-10
1.01524e-11
-3.9394e-10
9.48188e-12
-3.98767e-10
8.79672e-12
-4.03213e-10
8.09867e-12
-4.07268e-10
7.38996e-12
-4.10927e-10
6.67104e-12
-4.14186e-10
5.94167e-12
-4.17041e-10
5.2031e-12
-4.19488e-10
4.45769e-12
-4.21522e-10
3.70707e-12
-4.23142e-10
2.95196e-12
-4.24345e-10
2.19325e-12
-4.25128e-10
1.43187e-12
-4.25493e-10
6.68319e-13
-4.2544e-10
-9.63697e-14
-4.24967e-10
-8.60129e-13
-4.24076e-10
-1.62132e-12
-4.22767e-10
-2.37979e-12
-4.21043e-10
-3.1354e-12
-4.18908e-10
-3.88659e-12
-4.16363e-10
-4.63152e-12
-4.13413e-10
-5.36912e-12
-4.10063e-10
-6.09864e-12
-4.06316e-10
-6.8189e-12
-4.02178e-10
-7.52888e-12
-3.97656e-10
-8.22825e-12
-3.92757e-10
-8.91633e-12
-3.87489e-10
-9.59128e-12
-3.81858e-10
-1.02511e-11
-3.75873e-10
-1.08945e-11
-3.69545e-10
-1.15206e-11
-3.62882e-10
-1.21282e-11
-3.55895e-10
-1.27166e-11
-3.48596e-10
-1.32853e-11
-3.40995e-10
-1.38338e-11
-3.33106e-10
-1.43604e-11
-3.2494e-10
-1.48627e-11
-3.16512e-10
-1.53394e-11
-3.07836e-10
-1.57901e-11
-2.98928e-10
-1.62143e-11
-2.89801e-10
-1.66103e-11
-2.80473e-10
-1.69772e-11
-2.7096e-10
-1.73138e-11
-2.6128e-10
-1.76187e-11
-2.51451e-10
-1.78901e-11
-2.41491e-10
-1.81262e-11
-2.3142e-10
-1.83262e-11
-2.21258e-10
-1.84905e-11
-2.11025e-10
-1.86182e-11
-2.00742e-10
-1.87082e-11
-1.90431e-10
-1.87589e-11
-1.80114e-10
-1.87687e-11
-1.69812e-10
-1.87368e-11
-1.5955e-10
-1.86628e-11
-1.4935e-10
-1.85463e-11
-1.39237e-10
-1.8387e-11
-1.29234e-10
-1.81841e-11
-1.19366e-10
-1.79362e-11
-1.09657e-10
-1.76426e-11
-1.00132e-10
-1.73031e-11
-9.08156e-11
-1.69174e-11
-8.17329e-11
-1.64859e-11
-7.29082e-11
-1.60088e-11
-6.43661e-11
-1.54867e-11
-5.61315e-11
-1.49201e-11
-4.82284e-11
-1.43097e-11
-4.06801e-11
-1.36559e-11
-3.35087e-11
-1.29594e-11
-2.67363e-11
-1.22216e-11
-2.03843e-11
-1.1444e-11
-1.44725e-11
-1.06288e-11
-9.01911e-12
-9.77885e-12
-4.04112e-12
-8.89709e-12
4.45623e-13
-7.98677e-12
4.42756e-12
-7.05171e-12
7.89402e-12
-6.09579e-12
1.08375e-11
-5.12358e-12
1.3254e-11
-4.14103e-12
1.51424e-11
-3.15527e-12
1.65058e-11
-2.17468e-12
1.73522e-11
-1.20902e-12
1.76951e-11
-2.68734e-13
1.75549e-11
6.34709e-13
1.69605e-11
1.48715e-12
1.59497e-11
2.27111e-12
1.45697e-11
2.9664e-12
1.28797e-11
3.54957e-12
1.09528e-11
3.99294e-12
8.87686e-12
4.2641e-12
6.75569e-12
4.32602e-12
4.70939e-12
4.13867e-12
2.87204e-12
3.66417e-12
1.38572e-12
2.87662e-12
3.88375e-13
1.78999e-12
5.489e-13
-4.63303e-15
2.22578e-12
3.80175e-13
-3.08325e-12
1.83593e-12
-6.37686e-12
3.98747e-12
-7.63132e-12
6.48796e-12
-7.87709e-12
9.06248e-12
-7.58966e-12
1.15009e-11
-6.96123e-12
1.36536e-11
-6.08203e-12
1.54025e-11
-5.00036e-12
1.66523e-11
-3.75667e-12
1.7341e-11
-2.3811e-12
1.74158e-11
-8.98653e-13
1.68365e-11
6.70275e-13
1.5574e-11
2.30528e-12
1.36072e-11
3.98453e-12
1.09233e-11
5.69588e-12
7.51359e-12
7.4203e-12
3.38005e-12
9.14282e-12
-1.47351e-12
1.08553e-11
-7.03718e-12
1.25427e-11
-1.32958e-11
1.41971e-11
-2.02333e-11
1.58121e-11
-2.78309e-11
1.73768e-11
-3.60624e-11
1.88865e-11
-4.49046e-11
2.03355e-11
-5.43304e-11
2.17192e-11
-6.43088e-11
2.3034e-11
-7.48124e-11
2.42739e-11
-8.58091e-11
2.54374e-11
-9.72654e-11
2.65246e-11
-1.09149e-10
2.75329e-11
-1.21422e-10
2.84603e-11
-1.34053e-10
2.93064e-11
-1.47008e-10
3.00702e-11
-1.60251e-10
3.07522e-11
-1.73747e-10
3.13514e-11
-1.87463e-10
3.18671e-11
-2.01363e-10
3.23021e-11
-2.15412e-10
3.26585e-11
-2.29577e-10
3.2935e-11
-2.43825e-10
3.3132e-11
-2.58121e-10
3.32517e-11
-2.72437e-10
3.32955e-11
-2.8674e-10
3.32652e-11
-3.00996e-10
3.31627e-11
-3.15177e-10
3.29888e-11
-3.29253e-10
3.27456e-11
-3.43196e-10
3.24365e-11
-3.56977e-10
3.20633e-11
-3.70571e-10
3.16261e-11
-3.83951e-10
3.11263e-11
-3.97091e-10
3.05678e-11
-4.09968e-10
2.99538e-11
-4.22558e-10
2.92859e-11
-4.34837e-10
2.8566e-11
-4.46785e-10
2.77951e-11
-4.58382e-10
2.6975e-11
-4.6961e-10
2.61094e-11
-4.80448e-10
2.52016e-11
-4.90878e-10
2.42531e-11
-5.00884e-10
2.32647e-11
-5.10448e-10
2.2239e-11
-5.19557e-10
2.11789e-11
-5.28199e-10
2.00869e-11
-5.36358e-10
1.89652e-11
-5.44022e-10
1.78155e-11
-5.51179e-10
1.66387e-11
-5.5782e-10
1.54363e-11
-5.63934e-10
1.42119e-11
-5.69514e-10
1.29688e-11
-5.7455e-10
1.17077e-11
-5.79037e-10
1.04291e-11
-5.82966e-10
9.13501e-12
-5.86333e-10
7.82763e-12
-5.89136e-10
6.50947e-12
-5.9137e-10
5.18346e-12
-5.9303e-10
3.85202e-12
-5.94114e-10
2.51607e-12
-5.94622e-10
1.17623e-12
-5.94554e-10
-1.65373e-13
-5.93909e-10
-1.5055e-12
-5.92689e-10
-2.84174e-12
-5.90896e-10
-4.17303e-12
-5.88532e-10
-5.49847e-12
-5.85601e-10
-6.81624e-12
-5.82108e-10
-8.12415e-12
-5.78058e-10
-9.41997e-12
-5.73456e-10
-1.07013e-11
-5.68309e-10
-1.19659e-11
-5.62626e-10
-1.32125e-11
-5.56414e-10
-1.44401e-11
-5.49684e-10
-1.56471e-11
-5.42444e-10
-1.68307e-11
-5.34707e-10
-1.79883e-11
-5.26483e-10
-1.9118e-11
-5.17785e-10
-2.02179e-11
-5.08627e-10
-2.12861e-11
-4.99023e-10
-2.23208e-11
-4.88989e-10
-2.33205e-11
-4.7854e-10
-2.42834e-11
-4.67694e-10
-2.52068e-11
-4.56468e-10
-2.60884e-11
-4.44881e-10
-2.69264e-11
-4.32952e-10
-2.77192e-11
-4.20702e-10
-2.84649e-11
-4.08152e-10
-2.91611e-11
-3.95324e-10
-2.98056e-11
-3.82243e-10
-3.03963e-11
-3.68931e-10
-3.09312e-11
-3.55412e-10
-3.1408e-11
-3.41712e-10
-3.1825e-11
-3.27858e-10
-3.21803e-11
-3.13877e-10
-3.24722e-11
-2.99797e-10
-3.2699e-11
-2.85646e-10
-3.28588e-11
-2.71454e-10
-3.29502e-11
-2.57251e-10
-3.29715e-11
-2.43067e-10
-3.29207e-11
-2.28933e-10
-3.27964e-11
-2.14882e-10
-3.25977e-11
-2.00945e-10
-3.23238e-11
-1.87156e-10
-3.19736e-11
-1.73548e-10
-3.15456e-11
-1.60152e-10
-3.10384e-11
-1.47003e-10
-3.0452e-11
-1.34134e-10
-2.97863e-11
-1.21579e-10
-2.90412e-11
-1.09371e-10
-2.82173e-11
-9.75428e-11
-2.73154e-11
-8.61281e-11
-2.63362e-11
-7.51582e-11
-2.52809e-11
-6.46642e-11
-2.41509e-11
-5.46761e-11
-2.29477e-11
-4.5223e-11
-2.1674e-11
-3.63337e-11
-2.03332e-11
-2.80348e-11
-1.89286e-11
-2.03499e-11
-1.74644e-11
-1.33011e-11
-1.59456e-11
-6.90875e-12
-1.43784e-11
-1.18964e-12
-1.27697e-11
3.84272e-12
-1.11271e-11
8.17857e-12
-9.45916e-12
1.18129e-11
-7.77554e-12
1.47454e-11
-6.08816e-12
1.69812e-11
-4.41091e-12
1.85325e-11
-2.75976e-12
1.94187e-11
-1.1532e-12
1.96667e-11
3.87836e-13
1.93137e-11
1.83982e-12
1.84091e-11
3.1751e-12
1.70142e-11
4.36101e-12
1.52037e-11
5.35995e-12
1.30676e-11
6.129e-12
1.07123e-11
6.6193e-12
8.26113e-12
6.77662e-12
5.85485e-12
6.54433e-12
3.64999e-12
5.86873e-12
1.81539e-12
4.71026e-12
5.31511e-13
3.07276e-12
1.07999e-12
4.49508e-13
1.77671e-12
1.20941e-12
-3.84278e-12
2.75411e-12
-7.91922e-12
4.88174e-12
-9.75864e-12
7.31939e-12
-1.03129e-11
9.80703e-12
-1.00759e-11
1.21305e-11
-9.28515e-12
1.4119e-11
-8.07039e-12
1.5635e-11
-6.51734e-12
1.65658e-11
-4.68741e-12
1.6826e-11
-2.64154e-12
1.6347e-11
-4.20853e-13
1.508e-11
1.93842e-12
1.29847e-11
4.39891e-12
1.00364e-11
6.93451e-12
6.21436e-12
9.51769e-12
1.5106e-12
1.21239e-11
-4.07706e-12
1.47319e-11
-1.05465e-11
1.73232e-11
-1.78844e-11
1.988e-11
-2.60752e-11
2.23889e-11
-3.51004e-11
2.48362e-11
-4.49331e-11
2.72109e-11
-5.55479e-11
2.95016e-11
-6.69152e-11
3.17007e-11
-7.8999e-11
3.38027e-11
-9.17649e-11
3.57988e-11
-1.05177e-10
3.76843e-11
-1.19196e-10
3.94566e-11
-1.33783e-10
4.11109e-11
-1.48895e-10
4.26442e-11
-1.6449e-10
4.40555e-11
-1.80528e-10
4.53426e-11
-1.96964e-10
4.65056e-11
-2.13754e-10
4.75435e-11
-2.30857e-10
4.84544e-11
-2.4823e-10
4.924e-11
-2.65829e-10
4.99026e-11
-2.83613e-10
5.04421e-11
-3.01538e-10
5.08589e-11
-3.19562e-10
5.11557e-11
-3.37645e-10
5.13345e-11
-3.55748e-10
5.13977e-11
-3.73829e-10
5.13478e-11
-3.91851e-10
5.11858e-11
-4.09777e-10
5.09138e-11
-4.27568e-10
5.05363e-11
-4.4519e-10
5.00576e-11
-4.62607e-10
4.94793e-11
-4.79785e-10
4.88034e-11
-4.96691e-10
4.80334e-11
-5.13295e-10
4.71731e-11
-5.29566e-10
4.62256e-11
-5.45475e-10
4.51946e-11
-5.60993e-10
4.40831e-11
-5.76091e-10
4.28935e-11
-5.90746e-10
4.16296e-11
-6.04933e-10
4.02964e-11
-6.18628e-10
3.8897e-11
-6.3181e-10
3.74335e-11
-6.44456e-10
3.59094e-11
-6.56546e-10
3.43285e-11
-6.6806e-10
3.26939e-11
-6.78983e-10
3.10094e-11
-6.89296e-10
2.92787e-11
-6.98984e-10
2.75041e-11
-7.08033e-10
2.56878e-11
-7.1643e-10
2.38332e-11
-7.24161e-10
2.19444e-11
-7.31218e-10
2.00247e-11
-7.37589e-10
1.80768e-11
-7.43265e-10
1.61034e-11
-7.48237e-10
1.41075e-11
-7.525e-10
1.20915e-11
-7.56048e-10
1.00585e-11
-7.58877e-10
8.01265e-12
-7.60982e-10
5.95723e-12
-7.62361e-10
3.8943e-12
-7.63012e-10
1.82622e-12
-7.62933e-10
-2.4368e-13
-7.62126e-10
-2.31192e-12
-7.60592e-10
-4.37554e-12
-7.58335e-10
-6.43169e-12
-7.55356e-10
-8.47773e-12
-7.51661e-10
-1.05113e-11
-7.47254e-10
-1.25299e-11
-7.42144e-10
-1.45302e-11
-7.36337e-10
-1.65083e-11
-7.29842e-10
-1.84612e-11
-7.22668e-10
-2.03868e-11
-7.14826e-10
-2.22825e-11
-7.06328e-10
-2.41454e-11
-6.97187e-10
-2.59721e-11
-6.87416e-10
-2.77592e-11
-6.77031e-10
-2.95036e-11
-6.66047e-10
-3.12019e-11
-6.5448e-10
-3.28517e-11
-6.42349e-10
-3.44505e-11
-6.29675e-10
-3.59955e-11
-6.16476e-10
-3.7483e-11
-6.02775e-10
-3.89091e-11
-5.88593e-10
-4.0271e-11
-5.73954e-10
-4.15659e-11
-5.58883e-10
-4.27907e-11
-5.43405e-10
-4.39425e-11
-5.27547e-10
-4.50184e-11
-5.11338e-10
-4.60153e-11
-4.94806e-10
-4.69294e-11
-4.77981e-10
-4.77569e-11
-4.60894e-10
-4.84949e-11
-4.43577e-10
-4.91413e-11
-4.26063e-10
-4.96937e-11
-4.08387e-10
-5.01489e-11
-3.90582e-10
-5.05038e-11
-3.72685e-10
-5.07558e-11
-3.54733e-10
-5.09022e-11
-3.36763e-10
-5.0941e-11
-3.18814e-10
-5.08697e-11
-3.00924e-10
-5.0686e-11
-2.83134e-10
-5.03884e-11
-2.65483e-10
-4.99752e-11
-2.48012e-10
-4.94447e-11
-2.30762e-10
-4.87954e-11
-2.13774e-10
-4.8026e-11
-1.97091e-10
-4.71357e-11
-1.80753e-10
-4.61245e-11
-1.64801e-10
-4.49927e-11
-1.49278e-10
-4.37408e-11
-1.34224e-10
-4.23701e-11
-1.19679e-10
-4.0882e-11
-1.05684e-10
-3.92782e-11
-9.22748e-11
-3.75608e-11
-7.94903e-11
-3.57329e-11
-6.73656e-11
-3.37984e-11
-5.5935e-11
-3.17628e-11
-4.5231e-11
-2.96319e-11
-3.5283e-11
-2.7412e-11
-2.61177e-11
-2.51107e-11
-1.77594e-11
-2.27373e-11
-1.02277e-11
-2.0302e-11
-3.53798e-12
-1.78165e-11
2.29871e-12
-1.52946e-11
7.27635e-12
-1.27519e-11
1.13951e-11
-1.02061e-11
1.46619e-11
-7.6778e-12
1.70921e-11
-5.19036e-12
1.87103e-11
-2.77082e-12
1.95497e-11
-4.50396e-13
1.96546e-11
1.73545e-12
1.90825e-11
3.74686e-12
1.7905e-11
5.53823e-12
1.62084e-11
7.05675e-12
1.40946e-11
8.24282e-12
1.16829e-11
9.03064e-12
9.11054e-12
9.34847e-12
6.53309e-12
9.12127e-12
4.12497e-12
8.27663e-12
2.07993e-12
6.75461e-12
6.17047e-13
4.53461e-12
1.6967e-12
7.01147e-13
1.07498e-12
1.75685e-12
-4.89635e-12
3.37073e-12
-9.53488e-12
5.42977e-12
-1.1818e-11
7.70967e-12
-1.25913e-11
9.96991e-12
-1.23372e-11
1.20015e-11
-1.13156e-11
1.36255e-11
-9.69448e-12
1.46942e-11
-7.58523e-12
1.50901e-11
-5.08315e-12
1.47093e-11
-2.26224e-12
1.34788e-11
8.11173e-13
1.1335e-11
4.0808e-12
8.23308e-12
7.5015e-12
4.14004e-12
1.10274e-11
-9.6664e-13
1.46231e-11
-7.09663e-12
1.82546e-11
-1.4256e-11
2.18909e-11
-2.24392e-11
2.55057e-11
-3.16349e-11
2.90765e-11
-4.18281e-11
3.25801e-11
-5.29926e-11
3.60004e-11
-6.51015e-11
3.93204e-11
-7.81256e-11
4.25253e-11
-9.20281e-11
4.56047e-11
-1.06771e-10
4.85463e-11
-1.22314e-10
5.1341e-11
-1.38613e-10
5.39837e-11
-1.55624e-10
5.64675e-11
-1.73299e-10
5.87861e-11
-1.9159e-10
6.09361e-11
-2.10449e-10
6.29143e-11
-2.29826e-10
6.47191e-11
-2.4967e-10
6.63494e-11
-2.6993e-10
6.78024e-11
-2.90555e-10
6.90784e-11
-3.11495e-10
7.01799e-11
-3.32699e-10
7.11069e-11
-3.54117e-10
7.18598e-11
-3.75698e-10
7.24404e-11
-3.97394e-10
7.28514e-11
-4.19156e-10
7.3096e-11
-4.40937e-10
7.31777e-11
-4.62688e-10
7.30988e-11
-4.84363e-10
7.28616e-11
-5.0592e-10
7.24704e-11
-5.27313e-10
7.19306e-11
-5.485e-10
7.12455e-11
-5.6944e-10
7.04181e-11
-5.90091e-10
6.94534e-11
-6.10414e-10
6.83566e-11
-6.30374e-10
6.71318e-11
-6.49932e-10
6.57839e-11
-6.69054e-10
6.4317e-11
-6.87705e-10
6.27348e-11
-7.05855e-10
6.10424e-11
-7.23471e-10
5.92458e-11
-7.40524e-10
5.73502e-11
-7.56986e-10
5.53593e-11
-7.7283e-10
5.32773e-11
-7.88031e-10
5.11095e-11
-8.02564e-10
4.88609e-11
-8.16408e-10
4.65363e-11
-8.29539e-10
4.41407e-11
-8.41938e-10
4.16781e-11
-8.53587e-10
3.91522e-11
-8.64468e-10
3.65678e-11
-8.74565e-10
3.39305e-11
-8.83863e-10
3.12442e-11
-8.92351e-10
2.85127e-11
-9.00014e-10
2.57402e-11
-9.06842e-10
2.29314e-11
-9.12826e-10
2.00906e-11
-9.17958e-10
1.72222e-11
-9.22231e-10
1.43307e-11
-9.25638e-10
1.14206e-11
-9.28176e-10
8.4955e-12
-9.29842e-10
5.55901e-12
-9.30633e-10
2.61595e-12
-9.30547e-10
-3.28941e-13
-9.29586e-10
-3.27183e-12
-9.27752e-10
-6.209e-12
-9.25048e-10
-9.13616e-12
-9.21476e-10
-1.20491e-11
-9.17044e-10
-1.49441e-11
-9.11757e-10
-1.78172e-11
-9.05625e-10
-2.06637e-11
-8.98654e-10
-2.34788e-11
-8.90857e-10
-2.62589e-11
-8.82244e-10
-2.90003e-11
-8.72828e-10
-3.1699e-11
-8.62622e-10
-3.43504e-11
-8.51644e-10
-3.69504e-11
-8.39908e-10
-3.94945e-11
-8.27434e-10
-4.19781e-11
-8.1424e-10
-4.43963e-11
-8.00346e-10
-4.67456e-11
-7.85774e-10
-4.90225e-11
-7.70547e-10
-5.12225e-11
-7.5469e-10
-5.33404e-11
-7.38227e-10
-5.53716e-11
-7.21187e-10
-5.73119e-11
-7.03597e-10
-5.91568e-11
-6.85487e-10
-6.0902e-11
-6.66886e-10
-6.2543e-11
-6.47828e-10
-6.40761e-11
-6.28346e-10
-6.54971e-11
-6.08475e-10
-6.6801e-11
-5.88249e-10
-6.79825e-11
-5.67707e-10
-6.90375e-11
-5.46886e-10
-6.99624e-11
-5.25827e-10
-7.07536e-11
-5.04568e-10
-7.14071e-11
-4.83152e-10
-7.19191e-11
-4.61623e-10
-7.22856e-11
-4.40023e-10
-7.25028e-11
-4.18396e-10
-7.25672e-11
-3.9679e-10
-7.2476e-11
-3.7525e-10
-7.22263e-11
-3.53823e-10
-7.18157e-11
-3.32557e-10
-7.12417e-11
-3.115e-10
-7.0502e-11
-2.907e-10
-6.95949e-11
-2.70206e-10
-6.85191e-11
-2.50069e-10
-6.72736e-11
-2.30335e-10
-6.5858e-11
-2.11056e-10
-6.42728e-11
-1.92278e-10
-6.25192e-11
-1.7405e-10
-6.05985e-11
-1.56421e-10
-5.85132e-11
-1.39434e-10
-5.62656e-11
-1.23136e-10
-5.38594e-11
-1.0757e-10
-5.12991e-11
-9.27778e-11
-4.85908e-11
-7.87994e-11
-4.57414e-11
-6.56715e-11
-4.27591e-11
-5.34284e-11
-3.9654e-11
-4.21016e-11
-3.6437e-11
-3.17183e-11
-3.31207e-11
-2.23011e-11
-2.97198e-11
-1.38676e-11
-2.62505e-11
-6.42984e-12
-2.2732e-11
6.08709e-15
-1.91865e-11
5.44075e-12
-1.56394e-11
9.88259e-12
-1.21188e-11
1.33494e-11
-8.65674e-12
1.58689e-11
-5.29008e-12
1.74792e-11
-2.06065e-12
1.8231e-11
9.84003e-13
1.81883e-11
3.79012e-12
1.74291e-11
6.29751e-12
1.60476e-11
8.43827e-12
1.41548e-11
1.01359e-11
1.18789e-11
1.13066e-11
9.36677e-12
1.18601e-11
6.78568e-12
1.17019e-11
4.32458e-12
1.07375e-11
2.19817e-12
8.88054e-12
6.55432e-13
6.07659e-12
2.3519e-12
7.967e-13
2.76108e-13
2.0087e-12
-6.10684e-12
3.63041e-12
-1.11559e-11
5.55599e-12
-1.37459e-11
7.58402e-12
-1.46197e-11
9.49887e-12
-1.42508e-11
1.10947e-11
-1.29128e-11
1.21948e-11
-1.07937e-11
1.26498e-11
-8.0404e-12
1.23314e-11
-4.76573e-12
1.11377e-11
-1.0677e-12
8.98251e-12
2.96511e-12
5.80059e-12
7.26347e-12
1.53938e-12
1.17628e-11
-3.83858e-12
1.64047e-11
-1.03568e-11
2.11418e-11
-1.8031e-11
2.59279e-11
-2.68641e-11
3.07237e-11
-3.68512e-11
3.54943e-11
-4.79834e-11
4.02079e-11
-6.02396e-11
4.48365e-11
-7.35949e-11
4.93555e-11
-8.80203e-11
5.37437e-11
-1.03479e-10
5.79839e-11
-1.19932e-10
6.20578e-11
-1.37337e-10
6.59507e-11
-1.55648e-10
6.96525e-11
-1.74817e-10
7.31525e-11
-1.94793e-10
7.6442e-11
-2.15521e-10
7.95142e-11
-2.36947e-10
8.23628e-11
-2.59018e-10
8.49845e-11
-2.81675e-10
8.73767e-11
-3.04861e-10
8.95354e-11
-3.28518e-10
9.14589e-11
-3.52588e-10
9.31488e-11
-3.77014e-10
9.46056e-11
-4.01737e-10
9.58293e-11
-4.26699e-10
9.68215e-11
-4.51843e-10
9.75848e-11
-4.77113e-10
9.81221e-11
-5.02455e-10
9.84376e-11
-5.27812e-10
9.85347e-11
-5.5313e-10
9.84161e-11
-5.78356e-10
9.8087e-11
-6.03439e-10
9.75537e-11
-6.2833e-10
9.68213e-11
-6.52978e-10
9.58934e-11
-6.77335e-10
9.47753e-11
-7.01354e-10
9.34736e-11
-7.24993e-10
9.19944e-11
-7.48206e-10
9.03442e-11
-7.70951e-10
8.8529e-11
-7.93187e-10
8.65536e-11
-8.14877e-10
8.44238e-11
-8.35982e-10
8.21473e-11
-8.56467e-10
7.97311e-11
-8.76298e-10
7.71808e-11
-8.95442e-10
7.45023e-11
-9.13866e-10
7.17018e-11
-9.31542e-10
6.87859e-11
-9.48443e-10
6.57612e-11
-9.64542e-10
6.26347e-11
-9.79813e-10
5.94124e-11
-9.94234e-10
5.60991e-11
-1.00778e-09
5.27002e-11
-1.02044e-09
4.92232e-11
-1.03218e-09
4.56752e-11
-1.043e-09
4.20612e-11
-1.05288e-09
3.83866e-11
-1.06179e-09
3.4657e-11
-1.06974e-09
3.08779e-11
-1.0767e-09
2.70553e-11
-1.08268e-09
2.31959e-11
-1.08765e-09
1.9306e-11
-1.09162e-09
1.53908e-11
-1.09458e-09
1.14547e-11
-1.09653e-09
7.50331e-12
-1.09745e-09
3.54319e-12
-1.09736e-09
-4.19529e-13
-1.09626e-09
-4.37957e-12
-1.09413e-09
-8.33176e-12
-1.091e-09
-1.22708e-11
-1.08686e-09
-1.61913e-11
-1.08171e-09
-2.00879e-11
-1.07558e-09
-2.39546e-11
-1.06845e-09
-2.7785e-11
-1.06036e-09
-3.15738e-11
-1.0513e-09
-3.53158e-11
-1.0413e-09
-3.90057e-11
-1.03036e-09
-4.26379e-11
-1.0185e-09
-4.62065e-11
-1.00575e-09
-4.97057e-11
-9.92114e-10
-5.31298e-11
-9.77618e-10
-5.64726e-11
-9.62286e-10
-5.97285e-11
-9.4614e-10
-6.28922e-11
-9.29205e-10
-6.5958e-11
-9.11508e-10
-6.89198e-11
-8.93077e-10
-7.17712e-11
-8.73943e-10
-7.45063e-11
-8.54136e-10
-7.71195e-11
-8.33688e-10
-7.96048e-11
-8.12633e-10
-8.19563e-11
-7.91009e-10
-8.41682e-11
-7.68851e-10
-8.62349e-11
-7.46198e-10
-8.81505e-11
-7.2309e-10
-8.99088e-11
-6.99568e-10
-9.15038e-11
-6.75675e-10
-9.293e-11
-6.51457e-10
-9.41819e-11
-6.26956e-10
-9.52542e-11
-6.02222e-10
-9.61419e-11
-5.773e-10
-9.68401e-11
-5.52242e-10
-9.73439e-11
-5.27097e-10
-9.76482e-11
-5.01916e-10
-9.77482e-11
-4.76752e-10
-9.764e-11
-4.51658e-10
-9.73203e-11
-4.26689e-10
-9.67856e-11
-4.01898e-10
-9.60327e-11
-3.77342e-10
-9.50587e-11
-3.53075e-10
-9.38616e-11
-3.29153e-10
-9.244e-11
-3.05634e-10
-9.07929e-11
-2.82572e-10
-8.89198e-11
-2.60025e-10
-8.68212e-11
-2.38046e-10
-8.44988e-11
-2.16691e-10
-8.19547e-11
-1.96014e-10
-7.91916e-11
-1.76066e-10
-7.62136e-11
-1.56899e-10
-7.30259e-11
-1.38563e-10
-6.96351e-11
-1.21105e-10
-6.60493e-11
-1.04569e-10
-6.22778e-11
-8.89971e-11
-5.83313e-11
-7.44276e-11
-5.42232e-11
-6.08955e-11
-4.99687e-11
-4.84313e-11
-4.55847e-11
-3.706e-11
-4.10907e-11
-2.68011e-11
-3.65088e-11
-1.76688e-11
-3.18642e-11
-9.6693e-12
-2.71858e-11
-2.80095e-12
-2.25067e-11
2.94569e-12
-1.78642e-11
7.58987e-12
-1.33e-11
1.11617e-11
-8.86132e-12
1.37028e-11
-4.60165e-12
1.52678e-11
-5.81092e-13
1.59257e-11
3.13288e-12
1.57594e-11
6.46454e-12
1.48679e-11
9.32975e-12
1.33681e-11
1.16354e-11
1.1395e-11
1.32796e-11
9.1026e-12
1.41524e-11
6.66646e-12
1.41379e-11
4.28678e-12
1.31169e-11
2.19382e-12
1.09731e-11
6.56518e-13
7.61334e-12
3.00827e-12
7.95845e-13
-5.1881e-13
2.03666e-12
-7.34867e-12
3.57547e-12
-1.26927e-11
5.28317e-12
-1.54546e-11
6.96876e-12
-1.63052e-11
8.42754e-12
-1.57096e-11
9.46776e-12
-1.39521e-11
9.91102e-12
-1.12378e-11
9.60831e-12
-7.73796e-12
8.43265e-12
-3.58934e-12
6.27598e-12
1.08756e-12
3.05187e-12
6.18984e-12
-1.31017e-12
1.16259e-11
-6.86479e-12
1.73164e-11
-1.36512e-11
2.31922e-11
-2.1697e-11
2.91873e-11
-3.10186e-11
3.52483e-11
-4.16183e-11
4.13241e-11
-5.34942e-11
4.73693e-11
-6.6632e-11
5.33454e-11
-8.10106e-11
5.92164e-11
-9.66056e-11
6.49497e-11
-1.13382e-10
7.05204e-11
-1.31302e-10
7.59036e-11
-1.50322e-10
8.10768e-11
-1.70394e-10
8.60236e-11
-1.9147e-10
9.07285e-11
-2.13495e-10
9.51771e-11
-2.36411e-10
9.93588e-11
-2.60162e-10
1.03264e-10
-2.84687e-10
1.06887e-10
-3.09923e-10
1.10221e-10
-3.35807e-10
1.13261e-10
-3.62277e-10
1.16004e-10
-3.89266e-10
1.18449e-10
-4.16712e-10
1.20595e-10
-4.4455e-10
1.22442e-10
-4.72713e-10
1.23992e-10
-5.01137e-10
1.25246e-10
-5.29759e-10
1.26207e-10
-5.58517e-10
1.26879e-10
-5.87346e-10
1.27268e-10
-6.16186e-10
1.27375e-10
-6.44976e-10
1.27206e-10
-6.73657e-10
1.26768e-10
-7.02171e-10
1.26068e-10
-7.30462e-10
1.25111e-10
-7.58473e-10
1.23904e-10
-7.8615e-10
1.22453e-10
-8.13442e-10
1.20766e-10
-8.40299e-10
1.18851e-10
-8.66671e-10
1.16716e-10
-8.9251e-10
1.14368e-10
-9.1777e-10
1.11813e-10
-9.42407e-10