/*--------------------------------*- C++ -*----------------------------------*\
  =========                 |
  \\      /  F ield         | OpenFOAM: The Open Source CFD Toolbox
   \\    /   O peration     | Website:  https://openfoam.org
    \\  /    A nd           | Version:  7
     \\/     M anipulation  |
\*---------------------------------------------------------------------------*/
FoamFile
{
    version     2.0;
    format      ascii;
    class       volScalarField;
    location    "0.1625";
    object      p;
}
// * * * * * * * * * * * * * * * * * * * * * * * * * * * * * * * * * * * * * //

dimensions      [0 2 -2 0 0 0 0];

internalField   nonuniform List<scalar> 
12800
(
2.40778e-08
1.79422e-05
-3.36416e-05
-0.000161804
-0.000355844
-0.000605111
-0.000898097
-0.00122362
-0.00157161
-0.00193336
-0.0023014
-0.00266945
-0.00303226
-0.00338548
-0.00372559
-0.00404979
-0.00435588
-0.00464223
-0.00490761
-0.00515121
-0.00537251
-0.00557126
-0.00574741
-0.0059011
-0.00603257
-0.00614219
-0.00623038
-0.00629761
-0.00634437
-0.00637114
-0.00637842
-0.00636666
-0.00633632
-0.0062878
-0.00622148
-0.00613768
-0.00603668
-0.00591874
-0.00578407
-0.00563282
-0.00546511
-0.00528099
-0.00508049
-0.00486357
-0.00463016
-0.00438016
-0.0041134
-0.0038297
-0.00352884
-0.00321054
-0.0028745
-0.00252037
-0.00214776
-0.00175625
-0.00134541
-0.00091473
-0.000463697
8.25964e-06
0.000501745
0.0010174
0.00155588
0.00211791
0.00270424
0.00331566
0.00395303
0.00461722
0.00530918
0.00602985
0.00678026
0.00756146
0.00837454
0.00922065
0.010101
0.0110167
0.011969
0.0129594
0.013989
0.0150592
0.0161715
0.0173271
0.0185275
0.0197742
0.0210685
0.0224119
0.0238058
0.0252516
0.0267508
0.0283047
0.0299145
0.0315815
0.0333068
0.0350915
0.0369365
0.0388426
0.0408105
0.0428407
0.0449336
0.0470892
0.0493075
0.051588
0.0539302
0.056333
0.0587952
0.0613151
0.0638908
0.0665198
0.0691992
0.0719259
0.0746961
0.0775055
0.0803495
0.0832228
0.0861198
0.0890342
0.0919593
0.094888
0.0978124
0.100725
0.103616
0.106478
0.1093
0.112075
0.114791
0.117439
0.120009
0.122492
0.124877
0.127154
0.129316
0.131353
0.133256
0.135019
0.136634
0.138096
0.139399
0.14054
0.141516
0.142326
0.142969
0.143447
0.143762
0.143919
0.143923
0.143782
0.143504
0.1431
0.142582
0.141964
0.141261
0.14049
0.139672
0.138827
0.137981
0.137159
0.136394
0.135718
0.135168
0.134784
0.134603
0.13462
-3.00934e-05
-1.15892e-05
-6.11953e-05
-0.000176321
-0.000346101
-0.000562816
-0.000818127
-0.00110331
-0.00141012
-0.00173112
-0.00205977
-0.00239039
-0.00271812
-0.0030389
-0.0033493
-0.00364656
-0.00392845
-0.00419322
-0.00443955
-0.00466648
-0.00487334
-0.00505971
-0.00522539
-0.00537034
-0.00549463
-0.00559848
-0.00568214
-0.00574594
-0.00579023
-0.00581537
-0.00582173
-0.00580966
-0.00577949
-0.00573156
-0.00566614
-0.0055835
-0.00548385
-0.00536738
-0.00523424
-0.00508454
-0.00491836
-0.00473571
-0.00453659
-0.00432092
-0.00408863
-0.00383957
-0.00357357
-0.00329042
-0.00298987
-0.00267166
-0.00233546
-0.00198092
-0.00160764
-0.00121521
-0.000803156
-0.000370996
8.17969e-05
0.000555785
0.00105156
0.00156977
0.00211105
0.00267612
0.00326571
0.00388062
0.00452166
0.0051897
0.00588563
0.00661041
0.00736501
0.00815046
0.0089678
0.00981813
0.0107026
0.0116223
0.0125785
0.0135724
0.0146053
0.0156785
0.0167931
0.0179507
0.0191524
0.0203996
0.0216936
0.0230359
0.0244276
0.0258702
0.0273649
0.0289129
0.0305155
0.0321735
0.0338882
0.0356605
0.037491
0.0393806
0.0413298
0.043339
0.0454083
0.0475378
0.0497272
0.0519761
0.0542837
0.056649
0.0590706
0.0615469
0.0640757
0.0666546
0.0692809
0.0719512
0.0746619
0.0774088
0.0801874
0.0829925
0.0858186
0.0886598
0.0915094
0.0943607
0.0972063
0.100038
0.102849
0.105629
0.108371
0.111064
0.113701
0.116271
0.118765
0.121175
0.123491
0.125704
0.127805
0.129787
0.131641
0.133362
0.134942
0.136376
0.13766
0.138791
0.139766
0.140584
0.141246
0.141752
0.142105
0.142311
0.142374
0.142301
0.142102
0.141786
0.141365
0.140851
0.140261
0.13961
0.138916
0.138199
0.137482
0.136788
0.136143
0.135575
0.135112
0.134782
0.134619
0.134636
4.04912e-06
2.43768e-05
-2.31821e-05
-0.000130948
-0.000286661
-0.000483554
-0.000714797
-0.000973137
-0.0012516
-0.00154375
-0.00184383
-0.0021467
-0.00244795
-0.00274379
-0.00303099
-0.0033069
-0.00356933
-0.00381652
-0.00404712
-0.00426009
-0.0044547
-0.00463041
-0.00478693
-0.00492409
-0.00504187
-0.00514036
-0.00521969
-0.0052801
-0.00532182
-0.00534513
-0.00535028
-0.00533755
-0.0053072
-0.00525946
-0.00519455
-0.00511268
-0.00501401
-0.00489867
-0.00476677
-0.00461837
-0.00445351
-0.00427217
-0.00407432
-0.00385987
-0.00362869
-0.00338064
-0.00311553
-0.00283312
-0.00253317
-0.00221537
-0.00187941
-0.00152491
-0.0011515
-0.000758727
-0.000346141
8.67566e-05
0.000540495
0.00101563
0.00151276
0.00203249
0.00257548
0.00314243
0.00373407
0.00435116
0.00499452
0.00566498
0.00636343
0.00709077
0.00784798
0.00863602
0.00945595
0.0103088
0.0111956
0.0121176
0.0130759
0.0140716
0.015106
0.0161802
0.0172956
0.0184534
0.0196547
0.0209009
0.0221933
0.0235331
0.0249215
0.0263599
0.0278492
0.0293908
0.0309856
0.0326347
0.034339
0.0360993
0.0379164
0.0397907
0.0417229
0.0437132
0.0457617
0.0478683
0.0500327
0.0522544
0.0545326
0.0568661
0.0592537
0.0616934
0.0641834
0.0667212
0.0693038
0.0719283
0.0745908
0.0772874
0.0800135
0.0827642
0.0855341
0.0883174
0.0911078
0.0938986
0.0966827
0.0994526
0.1022
0.104918
0.107598
0.11023
0.112806
0.115317
0.117755
0.12011
0.122374
0.124538
0.126595
0.128536
0.130355
0.132045
0.1336
0.135015
0.136286
0.13741
0.138386
0.139211
0.139887
0.140416
0.140799
0.141041
0.141149
0.141128
0.140987
0.140736
0.140386
0.13995
0.139442
0.138876
0.138271
0.137644
0.137015
0.136406
0.135838
0.135335
0.134921
0.134617
0.134456
0.134457
0.000117127
0.000127331
7.46339e-05
-3.26127e-05
-0.000182743
-0.000369421
-0.000586558
-0.000827847
-0.00108725
-0.00135916
-0.00163848
-0.00192061
-0.00220156
-0.00247784
-0.00274648
-0.00300498
-0.00325126
-0.00348364
-0.00370077
-0.00390163
-0.00408542
-0.00425159
-0.00439976
-0.00452971
-0.00464135
-0.00473467
-0.00480975
-0.00486672
-0.00490575
-0.00492702
-0.00493073
-0.00491708
-0.00488625
-0.00483843
-0.00477376
-0.0046924
-0.00459447
-0.00448006
-0.00434923
-0.004202
-0.00403837
-0.00385831
-0.00366173
-0.00344854
-0.00321858
-0.00297168
-0.00270763
-0.0024262
-0.00212712
-0.00181009
-0.00147475
-0.00112074
-0.000747668
-0.000355097
5.74362e-05
0.000490432
0.00094442
0.00141996
0.00191763
0.00243804
0.00298184
0.00354972
0.00414239
0.00476061
0.00540517
0.0060769
0.00677665
0.00750531
0.00826381
0.00905312
0.00987423
0.0107282
0.0116159
0.0125387
0.0134975
0.0144934
0.0155278
0.0166017
0.0177162
0.0188727
0.0200722
0.021316
0.0226053
0.0239413
0.0253252
0.0267581
0.0282411
0.0297754
0.0313618
0.0330013
0.0346948
0.036443
0.0382466
0.0401061
0.0420219
0.0439942
0.0460231
0.0481085
0.05025
0.052447
0.0546987
0.057004
0.0593614
0.0617693
0.0642255
0.0667276
0.069273
0.0718584
0.0744802
0.0771346
0.079817
0.0825227
0.0852464
0.0879824
0.0907246
0.0934666
0.0962014
0.0989218
0.10162
0.104289
0.106919
0.109504
0.112033
0.114499
0.116893
0.119207
0.121432
0.12356
0.125584
0.127495
0.129288
0.130956
0.132493
0.133895
0.135158
0.136278
0.137256
0.138088
0.138777
0.139323
0.139729
0.140001
0.140142
0.140161
0.140065
0.139863
0.139566
0.139187
0.138738
0.138234
0.137691
0.137125
0.136554
0.135998
0.135475
0.135007
0.134612
0.13431
0.134126
0.134077
0.000301617
0.000288139
0.000221685
0.00010857
-4.21138e-05
-0.000224638
-0.000433564
-0.000663423
-0.000908998
-0.00116542
-0.00142823
-0.00169339
-0.00195731
-0.00221684
-0.00246929
-0.00271235
-0.00294409
-0.00316295
-0.00336762
-0.00355712
-0.00373067
-0.00388769
-0.00402776
-0.00415064
-0.00425616
-0.00434428
-0.004415
-0.0044684
-0.00450457
-0.00452363
-0.00452572
-0.00451096
-0.00447949
-0.00443143
-0.00436688
-0.00428594
-0.00418867
-0.00407513
-0.00394535
-0.0037993
-0.00363695
-0.00345823
-0.00326304
-0.00305124
-0.00282266
-0.00257711
-0.00231437
-0.00203419
-0.00173627
-0.00142031
-0.00108594
-0.000732805
-0.000360487
3.14463e-05
0.000443464
0.000876065
0.00132978
0.00180516
0.00230278
0.00282325
0.00336721
0.00393533
0.00452832
0.00514691
0.00579189
0.00646406
0.00716425
0.00789333
0.00865221
0.00944182
0.0102631
0.0111171
0.0120047
0.0129271
0.0138853
0.0148804
0.0159135
0.0169858
0.0180983
0.0192522
0.0204486
0.0216888
0.0229738
0.0243047
0.0256828
0.027109
0.0285845
0.0301102
0.031687
0.0333159
0.0349975
0.0367327
0.038522
0.0403659
0.0422648
0.0442187
0.0462278
0.0482919
0.0504106
0.0525832
0.054809
0.0570868
0.0594151
0.0617924
0.0642165
0.066685
0.0691954
0.0717444
0.0743286
0.0769441
0.0795866
0.0822514
0.0849334
0.0876271
0.0903264
0.0930252
0.0957167
0.0983939
0.101049
0.103675
0.106264
0.108808
0.111298
0.113726
0.116084
0.118363
0.120556
0.122655
0.124652
0.12654
0.128312
0.129963
0.131487
0.13288
0.134137
0.135257
0.136237
0.137077
0.137777
0.138339
0.138766
0.139063
0.139233
0.139285
0.139226
0.139064
0.138811
0.138477
0.138076
0.137619
0.137123
0.136603
0.136074
0.135553
0.135057
0.134604
0.13421
0.133892
0.133664
0.133537
0.000546425
0.000499459
0.000412025
0.000287215
0.000130382
-5.34174e-05
-0.000259377
-0.000482826
-0.000719296
-0.000964596
-0.00121486
-0.00146658
-0.00171658
-0.0019621
-0.0022007
-0.00243032
-0.00264921
-0.00285592
-0.00304927
-0.00322832
-0.00339231
-0.0035407
-0.00367307
-0.00378913
-0.0038887
-0.0039717
-0.00403809
-0.00408788
-0.00412113
-0.0041379
-0.00413826
-0.00412229
-0.00409008
-0.00404168
-0.00397717
-0.00389658
-0.00379994
-0.00368727
-0.00355854
-0.0034137
-0.0032527
-0.00307541
-0.00288172
-0.00267146
-0.00244445
-0.00220046
-0.00193926
-0.00166058
-0.00136411
-0.00104954
-0.000716489
-0.000364592
6.56587e-06
0.000397428
0.000808468
0.00124019
0.00169311
0.00216777
0.00266476
0.00318467
0.00372814
0.00429583
0.00488842
0.00550664
0.00615126
0.00682304
0.00752282
0.00825144
0.00900978
0.00979873
0.0106192
0.0114722
0.0123587
0.0132796
0.0142361
0.0152292
0.0162599
0.0173293
0.0184385
0.0195886
0.0207807
0.0220159
0.0232953
0.02462
0.025991
0.0274093
0.028876
0.030392
0.0319582
0.0335754
0.0352442
0.0369655
0.0387398
0.0405674
0.0424487
0.0443839
0.0463729
0.0484156
0.0505115
0.0526601
0.0548605
0.0571116
0.0594119
0.0617599
0.0641535
0.0665904
0.0690681
0.0715833
0.0741328
0.0767128
0.0793191
0.0819471
0.0845918
0.0872479
0.0899096
0.0925706
0.0952246
0.0978646
0.100483
0.103074
0.105628
0.108137
0.110595
0.112992
0.115321
0.117573
0.119742
0.121818
0.123794
0.125665
0.127422
0.129061
0.130576
0.131963
0.133218
0.134339
0.135323
0.136171
0.136883
0.13746
0.137905
0.138223
0.138418
0.138498
0.138468
0.138339
0.13812
0.137822
0.137456
0.137036
0.136573
0.136084
0.135581
0.13508
0.134596
0.134142
0.133734
0.133385
0.133099
0.132873
0.000840424
0.00075329
0.000639309
0.000497801
0.000329892
0.000139966
-6.77377e-05
-0.00028931
-0.000520987
-0.000759199
-0.00100064
-0.00124228
-0.0014814
-0.00171556
-0.00194267
-0.00216088
-0.00236866
-0.0025647
-0.00274796
-0.00291756
-0.00307283
-0.00321324
-0.0033384
-0.00344802
-0.00354193
-0.00362001
-0.00368219
-0.00372845
-0.0037588
-0.00377327
-0.00377189
-0.00375468
-0.00372169
-0.00367292
-0.0036084
-0.00352815
-0.00343214
-0.00332034
-0.0031927
-0.00304913
-0.00288954
-0.0027138
-0.00252174
-0.00231318
-0.0020879
-0.00184568
-0.00158625
-0.00130933
-0.0010146
-0.00070173
-0.000370341
-2.00516e-05
0.000349552
0.000738918
0.00114853
0.00157888
0.00203048
0.00250389
0.00299967
0.00351842
0.00406075
0.00462732
0.0052188
0.00583591
0.00647937
0.00714997
0.00784849
0.00857576
0.00933262
0.01012
0.0109387
0.0117896
0.0126738
0.0135922
0.0145459
0.0155357
0.0165628
0.0176282
0.018733
0.0198781
0.0210646
0.0222936
0.0235661
0.0248832
0.0262459
0.0276552
0.0291119
0.0306171
0.0321715
0.0337759
0.035431
0.0371375
0.0388959
0.0407065
0.0425698
0.0444858
0.0464545
0.0484757
0.050549
0.0526739
0.0548494
0.0570746
0.059348
0.061668
0.0640328
0.06644
0.0688871
0.0713713
0.073889
0.0764368
0.0790105
0.0816057
0.0842175
0.0868408
0.0894698
0.0920985
0.0947207
0.0973295
0.0999181
0.102479
0.105005
0.107488
0.10992
0.112293
0.1146
0.116832
0.118982
0.121042
0.123005
0.124864
0.126612
0.128244
0.129755
0.131141
0.132397
0.133521
0.134512
0.135368
0.136091
0.136682
0.137144
0.13748
0.137696
0.137797
0.137792
0.137688
0.137495
0.137223
0.136882
0.136486
0.136046
0.135574
0.135085
0.13459
0.134103
0.133635
0.1332
0.132809
0.132454
0.132121
0.00117288
0.00104117
0.000896495
0.000734295
0.000551231
0.000351094
0.00013764
-8.59362e-05
-0.000316532
-0.000551162
-0.000787042
-0.00102161
-0.00125256
-0.00147783
-0.0016956
-0.00190432
-0.00210263
-0.00228944
-0.00246381
-0.00262499
-0.00277238
-0.00290551
-0.00302402
-0.00312767
-0.00321626
-0.00328967
-0.00334784
-0.00339072
-0.00341828
-0.00343053
-0.00342744
-0.00340903
-0.00337527
-0.00332615
-0.00326166
-0.00318176
-0.00308641
-0.00297553
-0.00284904
-0.00270683
-0.00254877
-0.00237468
-0.00218439
-0.00197769
-0.00175434
-0.0015141
-0.00125667
-0.000981769
-0.000689059
-0.00037819
-4.87905e-05
0.000299534
0.000667204
0.00105467
0.00146241
0.00189092
0.00234072
0.00281235
0.00330637
0.00382336
0.00436394
0.00492874
0.00551842
0.00613368
0.00677525
0.00744386
0.0081403
0.00886536
0.00961986
0.0104046
0.0112206
0.0120685
0.0129494
0.0138642
0.0148139
0.0157994
0.0168218
0.017882
0.018981
0.0201198
0.0212995
0.0225211
0.0237855
0.0250938
0.0264469
0.0278459
0.0292914
0.0307846
0.032326
0.0339166
0.035557
0.0372477
0.0389894
0.0407823
0.0426268
0.0445231
0.0464711
0.0484706
0.0505213
0.0526226
0.0547736
0.0569735
0.0592208
0.061514
0.0638512
0.0662304
0.068649
0.0711042
0.0735928
0.0761113
0.0786557
0.0812217
0.0838045
0.0863991
0.0890001
0.0916014
0.094197
0.0967802
0.0993442
0.101882
0.104386
0.106848
0.109261
0.111617
0.113909
0.116127
0.118265
0.120316
0.122271
0.124124
0.125869
0.127499
0.129011
0.130398
0.131659
0.13279
0.133789
0.134655
0.13539
0.135995
0.136471
0.136823
0.137057
0.137176
0.13719
0.137105
0.13693
0.136676
0.136352
0.135971
0.135542
0.135077
0.13459
0.13409
0.133589
0.133097
0.132625
0.132184
0.131753
0.13131
0.00153406
0.00135496
0.0011766
0.000990609
0.000789127
0.000575438
0.00035289
0.000124027
-0.00010866
-0.00034273
-0.000575893
-0.000806037
-0.00103125
-0.00124982
-0.00146025
-0.00166123
-0.00185166
-0.00203059
-0.00219725
-0.00235102
-0.00249139
-0.00261796
-0.00273044
-0.0028286
-0.00291228
-0.00298137
-0.0030358
-0.0030755
-0.00310045
-0.0031106
-0.00310591
-0.00308637
-0.00305192
-0.00300252
-0.00293812
-0.00285865
-0.00276403
-0.00265415
-0.00252891
-0.00238816
-0.00223174
-0.00205945
-0.00187108
-0.00166641
-0.00144519
-0.00120713
-0.000951935
-0.000679296
-0.000388872
-8.03032e-05
0.000246791
0.000592811
0.000958183
0.00134336
0.00174882
0.00217505
0.00262257
0.00309192
0.00358365
0.00409833
0.00463656
0.00519897
0.00578619
0.00639892
0.00703786
0.00770374
0.0083973
0.00911931
0.00987057
0.0106519
0.0114641
0.0123081
0.0131847
0.0140948
0.0150395
0.0160196
0.017036
0.0180898
0.0191819
0.0203133
0.0214849
0.0226978
0.0239528
0.0252511
0.0265934
0.0279807
0.0294139
0.0308937
0.0324211
0.0339967
0.0356212
0.0372952
0.0390192
0.0407935
0.0426186
0.0444945
0.0464213
0.0483988
0.0504266
0.0525042
0.054631
0.0568058
0.0590276
0.0612948
0.0636056
0.0659581
0.0683498
0.070778
0.0732397
0.0757314
0.0782492
0.0807892
0.0833465
0.0859164
0.0884933
0.0910717
0.0936454
0.0962079
0.0987526
0.101272
0.10376
0.106208
0.108608
0.110953
0.113235
0.115446
0.117579
0.119625
0.121578
0.123431
0.125178
0.126812
0.128329
0.129723
0.130992
0.132132
0.133142
0.13402
0.134768
0.135386
0.135877
0.136244
0.136492
0.136626
0.136654
0.136583
0.136422
0.136179
0.135864
0.135489
0.135063
0.134597
0.134101
0.133587
0.133063
0.132539
0.132024
0.131527
0.131017
0.130464
0.00191523
0.00168705
0.00147295
0.00126081
0.00103834
0.00080841
0.000574014
0.000337116
9.96451e-05
-0.000136462
-0.000369378
-0.000597423
-0.000819066
-0.00103293
-0.00123783
-0.00143271
-0.0016167
-0.00178905
-0.00194916
-0.00209652
-0.00223073
-0.00235149
-0.00245857
-0.00255179
-0.00263102
-0.00269617
-0.00274717
-0.00278398
-0.00280652
-0.00281477
-0.00280865
-0.00278812
-0.0027531
-0.00270353
-0.00263932
-0.00256039
-0.0024666
-0.00235784
-0.00223397
-0.0020948
-0.00194015
-0.0017698
-0.00158352
-0.00138106
-0.00116214
-0.000926471
-0.000673736
-0.000403604
-0.000115725
0.000190267
0.000514758
0.000858154
0.00122089
0.00160341
0.00200619
0.00242973
0.00287454
0.00334114
0.00383008
0.00434192
0.00487724
0.00543666
0.00602081
0.00663035
0.00726597
0.00792838
0.0086183
0.00933646
0.0100836
0.0108606
0.0116682
0.0125072
0.0133786
0.0142831
0.0152216
0.0161952
0.0172046
0.0182509
0.0193349
0.0204576
0.0216199
0.0228228
0.0240672
0.0253541
0.0266843
0.0280587
0.0294782
0.0309436
0.0324556
0.0340151
0.0356225
0.0372787
0.0389839
0.0407388
0.0425435
0.0443984
0.0463033
0.0482582
0.0502627
0.0523166
0.0544189
0.056569
0.0587656
0.0610073
0.0632926
0.0656194
0.0679855
0.0703883
0.0728249
0.0752919
0.0777858
0.0803024
0.0828373
0.0853857
0.0879424
0.0905018
0.0930578
0.0956043
0.0981345
0.100641
0.103118
0.105556
0.107949
0.110289
0.112568
0.114777
0.11691
0.118959
0.120916
0.122774
0.124528
0.126171
0.127697
0.129102
0.130383
0.131536
0.132559
0.133452
0.134214
0.134846
0.135351
0.135732
0.135993
0.136141
0.13618
0.136119
0.135966
0.135729
0.135417
0.135041
0.134611
0.134136
0.133625
0.133089
0.132536
0.131972
0.131408
0.130852
0.130263
0.129603
0.00230859
0.00203042
0.0017792
0.00153918
0.00129375
0.00104543
0.000796953
0.00054975
0.000305233
6.48744e-05
-0.000169931
-0.000397906
-0.000617886
-0.000828833
-0.00102984
-0.00122013
-0.00139904
-0.00156604
-0.00172068
-0.0018626
-0.00199151
-0.00210722
-0.00220955
-0.0022984
-0.00237368
-0.00243532
-0.00248327
-0.00251748
-0.0025379
-0.00254448
-0.00253713
-0.00251579
-0.00248038
-0.00243079
-0.00236692
-0.00228865
-0.00219583
-0.00208832
-0.00196594
-0.0018285
-0.00167576
-0.00150752
-0.00132349
-0.00112341
-0.000906985
-0.000673903
-0.000423834
-0.000156435
0.000128655
0.000431811
0.000753423
0.0010939
0.00145368
0.0018332
0.00223296
0.00265342
0.0030951
0.00355852
0.00404421
0.00455271
0.0050846
0.00564048
0.00622095
0.00682669
0.00745833
0.00811658
0.00880212
0.00951567
0.010258
0.0110298
0.0118319
0.012665
0.0135301
0.0144279
0.0153594
0.0163253
0.0173266
0.0183642
0.019439
0.0205518
0.0217036
0.0228953
0.0241278
0.025402
0.0267188
0.028079
0.0294835
0.0309331
0.0324286
0.0339706
0.0355599
0.037197
0.0388824
0.0406167
0.0424002
0.044233
0.0461153
0.0480469
0.0500278
0.0520574
0.0541351
0.0562603
0.0584319
0.0606485
0.0629087
0.0652107
0.0675522
0.0699309
0.0723439
0.0747881
0.07726
0.0797557
0.0822708
0.0848008
0.0873404
0.0898843
0.0924265
0.094961
0.097481
0.0999798
0.10245
0.104885
0.107275
0.109615
0.111896
0.114109
0.116248
0.118304
0.120271
0.12214
0.123906
0.125563
0.127104
0.128525
0.129821
0.130991
0.132031
0.13294
0.133718
0.134366
0.134886
0.135281
0.135555
0.135713
0.135762
0.135708
0.135559
0.135323
0.13501
0.134628
0.134188
0.133697
0.133165
0.132602
0.132013
0.131406
0.13079
0.130172
0.129505
0.128741
0.00270708
0.00237857
0.00208937
0.00182024
0.00155035
0.00128198
0.00101763
0.000758266
0.000504828
0.000258353
1.98298e-05
-0.000209834
-0.000429827
-0.000639434
-0.00083803
-0.00102509
-0.00120019
-0.00136299
-0.00151319
-0.0016506
-0.00177506
-0.00188646
-0.00198472
-0.00206978
-0.00214162
-0.00220021
-0.00224552
-0.0022775
-0.00229611
-0.00230128
-0.00229296
-0.00227104
-0.00223542
-0.00218599
-0.00212263
-0.00204518
-0.00195349
-0.00184738
-0.00172665
-0.00159107
-0.00144041
-0.00127442
-0.0010928
-0.000895275
-0.000681521
-0.000451213
-0.000204006
6.04542e-05
0.000342535
0.000642618
0.0009611
0.00129839
0.00165492
0.00203115
0.00242755
0.00284459
0.00328278
0.00374261
0.00422462
0.00472932
0.0052573
0.00580911
0.00638537
0.00698671
0.00761376
0.00826719
0.00894767
0.00965587
0.0103925
0.0111583
0.0119541
0.0127805
0.0136384
0.0145286
0.015452
0.0164092
0.0174014
0.0184291
0.0194934
0.0205952
0.0217352
0.0229144
0.0241338
0.025394
0.0266961
0.0280408
0.029429
0.0308615
0.0323391
0.0338624
0.0354322
0.037049
0.0387135
0.0404261
0.0421872
0.043997
0.0458557
0.0477634
0.0497197
0.0517245
0.0537773
0.0558774
0.0580238
0.0602154
0.0624508
0.0647284
0.067046
0.0694015
0.0717922
0.074215
0.0766667
0.0791434
0.0816411
0.0841551
0.0866805
0.089212
0.0917439
0.0942701
0.0967839
0.0992787
0.101747
0.104182
0.106576
0.108921
0.111209
0.113431
0.115581
0.117651
0.119632
0.121518
0.123302
0.124977
0.126538
0.127979
0.129296
0.130486
0.131546
0.132474
0.133271
0.133937
0.134473
0.134883
0.135169
0.135338
0.135394
0.135345
0.135198
0.134961
0.134642
0.13425
0.133794
0.133284
0.132726
0.13213
0.131502
0.130848
0.130178
0.129498
0.128753
0.127891
0.00310434
0.00272547
0.00239783
0.00209875
0.00180331
0.0015136
0.00123198
0.000958962
0.000695059
0.000440909
0.000197124
-3.57428e-05
-0.000257211
-0.000466867
-0.000664371
-0.000849447
-0.00102189
-0.00118153
-0.00132829
-0.00146209
-0.00158291
-0.00169073
-0.00178558
-0.00186746
-0.0019364
-0.00199242
-0.0020355
-0.00206563
-0.00208277
-0.00208686
-0.00207783
-0.00205557
-0.00201998
-0.00197092
-0.00190826
-0.00183182
-0.00174142
-0.00163687
-0.00151793
-0.00138438
-0.00123595
-0.00107236
-0.000893312
-0.000698491
-0.000487571
-0.000260206
-1.60357e-05
0.000245302
0.00052418
0.000820984
0.00113611
0.00146998
0.00182302
0.00219568
0.00258843
0.00300174
0.0034361
0.00389199
0.00436992
0.00487042
0.00539403
0.00594131
0.00651285
0.00710925
0.00773114
0.00837914
0.00905389
0.00975607
0.0104863
0.0112454
0.012034
0.0128528
0.0137027
0.0145843
0.0154986
0.0164462
0.017428
0.0184449
0.0194977
0.0205872
0.0217142
0.0228797
0.0240846
0.0253296
0.0266156
0.0279435
0.0293141
0.0307281
0.0321864
0.0336897
0.0352386
0.0368339
0.0384762
0.0401658
0.0419034
0.0436891
0.0455232
0.0474058
0.0493369
0.0513162
0.0533434
0.0554178
0.0575388
0.0597052
0.0619159
0.0641693
0.0664635
0.0687964
0.0711656
0.0735682
0.076001
0.0784604
0.0809424
0.0834426
0.0859563
0.0884782
0.0910028
0.0935238
0.0960351
0.0985298
0.101001
0.103441
0.105842
0.108196
0.110496
0.112733
0.1149
0.116988
0.11899
0.120897
0.122704
0.124403
0.125988
0.127454
0.128796
0.130011
0.131095
0.132047
0.132865
0.133551
0.134106
0.134531
0.134831
0.13501
0.135073
0.135028
0.134881
0.134639
0.134312
0.133907
0.133432
0.132898
0.132311
0.131679
0.131009
0.130306
0.12958
0.128838
0.128018
0.127061
0.00349453
0.00306554
0.00269926
0.00236969
0.00204794
0.00173595
0.00143597
0.00114811
0.000872486
0.000609377
0.000359037
0.000121677
-0.000102528
-0.000313456
-0.000511036
-0.000695234
-0.000866055
-0.00102354
-0.00116776
-0.0012988
-0.00141675
-0.00152172
-0.00161381
-0.00169311
-0.0017597
-0.00181363
-0.00185494
-0.00188362
-0.00189965
-0.00190298
-0.00189354
-0.00187122
-0.0018359
-0.00178744
-0.00172567
-0.00165043
-0.0015615
-0.00145867
-0.00134169
-0.00121032
-0.00106426
-0.000903216
-0.000726874
-0.000534903
-0.000326958
-0.000102678
0.000138306
0.000396365
0.000671875
0.000965226
0.00127682
0.00160706
0.0019564
0.00232526
0.00271412
0.00312343
0.00355366
0.00400529
0.00447881
0.00497473
0.00549358
0.0060359
0.00660226
0.00719323
0.00780942
0.00845143
0.00911987
0.00981536
0.0105386
0.0112902
0.0120708
0.0128813
0.0137222
0.0145944
0.0154986
0.0164356
0.0174062
0.0184111
0.0194511
0.0205272
0.0216401
0.0227907
0.0239798
0.0252083
0.0264769
0.0277866
0.0291381
0.0305323
0.0319699
0.0334518
0.0349786
0.036551
0.0381696
0.039835
0.0415477
0.0433082
0.0451165
0.0469731
0.0488778
0.0508307
0.0528315
0.0548797
0.0569746
0.0591155
0.0613012
0.0635304
0.0658013
0.0681121
0.0704603
0.0728434
0.0752583
0.0777016
0.0801696
0.0826578
0.0851618
0.0876764
0.0901962
0.0927151
0.095227
0.0977249
0.100202
0.102651
0.105063
0.107432
0.109749
0.112006
0.114194
0.116305
0.118332
0.120267
0.122102
0.12383
0.125445
0.126941
0.128312
0.129556
0.130669
0.131648
0.132491
0.133201
0.133776
0.134219
0.134533
0.134724
0.134795
0.134753
0.134604
0.134357
0.134019
0.133598
0.133103
0.132542
0.131923
0.131253
0.130538
0.129785
0.129002
0.128199
0.127305
0.126258
0.00387227
0.00339355
0.00298864
0.0026283
0.00227973
0.00194477
0.0016256
0.00132197
0.00103363
0.000760513
0.000502538
0.000259604
3.15829e-05
-0.00018168
-0.000380365
-0.000564674
-0.000734823
-0.000891046
-0.00103358
-0.00116265
-0.00127848
-0.00138129
-0.00147126
-0.00154856
-0.00161333
-0.00166568
-0.00170566
-0.0017333
-0.0017486
-0.00175152
-0.00174197
-0.00171987
-0.00168507
-0.00163744
-0.00157679
-0.00150293
-0.00141564
-0.0013147
-0.00119983
-0.00107077
-0.000927217
-0.000768851
-0.00059534
-0.000406339
-0.000201484
1.95952e-05
0.000257276
0.000511933
0.000783944
0.0010737
0.00138161
0.00170808
0.00205353
0.00241841
0.00280317
0.00320826
0.00363412
0.00408122
0.00455004
0.00504106
0.00555481
0.0060918
0.00665257
0.00723768
0.00784769
0.00848319
0.00914476
0.00983299
0.0105485
0.011292
0.012064
0.0128653
0.0136965
0.0145584
0.0154517
0.016377
0.0173353
0.0183272
0.0193535
0.020415
0.0215126
0.022647
0.0238191
0.0250297
0.0262797
0.0275698
0.0289009
0.0302739
0.0316895
0.0331485
0.0346516
0.0361997
0.0377933
0.0394331
0.0411197
0.0428535
0.0446348
0.0464641
0.0483414
0.0502668
0.0522402
0.0542613
0.0563295
0.0584443
0.0606046
0.0628092
0.0650567
0.0673453
0.0696728
0.0720369
0.0744347
0.0768628
0.0793178
0.0817955
0.0842915
0.0868008
0.089318
0.0918373
0.0943525
0.0968568
0.0993434
0.101805
0.104233
0.10662
0.108958
0.111239
0.113453
0.115593
0.117651
0.119618
0.121486
0.123248
0.124898
0.126429
0.127836
0.129114
0.130259
0.131269
0.132143
0.132878
0.133477
0.133941
0.134272
0.134475
0.134554
0.134516
0.134366
0.134113
0.133763
0.133326
0.132808
0.132218
0.131565
0.130855
0.130094
0.12929
0.12845
0.127585
0.12662
0.125487
0.00423255
0.0037046
0.00326122
0.00286999
0.00249428
0.00213588
0.00179693
0.00147683
0.00117498
0.000891007
0.000624515
0.000375101
0.000142348
-7.41619e-05
-0.000274849
-0.000460144
-0.000630474
-0.000786253
-0.000927876
-0.00105572
-0.00117012
-0.00127142
-0.00135988
-0.00143576
-0.00149925
-0.00155049
-0.00158959
-0.00161661
-0.00163156
-0.0016344
-0.00162506
-0.00160346
-0.00156944
-0.00152286
-0.00146353
-0.00139125
-0.00130578
-0.00120687
-0.00109425
-0.000967635
-0.0008267
-0.000671117
-0.000500535
-0.000314591
-0.000112912
0.000104884
0.000339177
0.000590345
0.000858768
0.00114484
0.00144896
0.00177153
0.00211299
0.00247375
0.00285426
0.00325494
0.00367624
0.0041186
0.00458248
0.00506835
0.00557671
0.00610804
0.00666287
0.00724173
0.00784516
0.00847369
0.00912789
0.00980832
0.0105156
0.0112502
0.012013
0.0128044
0.0136251
0.0144759
0.0153574
0.0162702
0.0172152
0.0181931
0.0192046
0.0202505
0.0213315
0.0224486
0.0236025
0.024794
0.0260239
0.0272931
0.0286025
0.0299528
0.0313449
0.0327796
0.0342577
0.03578
0.0373471
0.0389599
0.0406188
0.0423246
0.0440776
0.0458782
0.0477268
0.0496236
0.0515685
0.0535614
0.0556021
0.0576898
0.059824
0.0620036
0.0642273
0.0664935
0.0688003
0.0711455
0.0735264
0.07594
0.0783829
0.0808511
0.0833404
0.0858459
0.0883624
0.0908842
0.0934052
0.0959186
0.0984176
0.100895
0.103342
0.105752
0.108115
0.110424
0.112669
0.114843
0.116936
0.11894
0.120847
0.12265
0.12434
0.125911
0.127358
0.128675
0.129859
0.130905
0.131811
0.132578
0.133204
0.133691
0.134042
0.134259
0.134349
0.134315
0.134165
0.133905
0.133544
0.133088
0.132547
0.131928
0.131239
0.130488
0.129681
0.128824
0.127928
0.127002
0.125968
0.124752
0.00457063
0.00399402
0.00351244
0.00309033
0.00268734
0.00230521
0.00194606
0.00160896
0.00129301
0.000997508
0.000721784
0.000465139
0.000226887
6.35722e-06
-0.000197111
-0.000384167
-0.000555435
-0.000711501
-0.00085292
-0.000980211
-0.00109385
-0.00119425
-0.00128179
-0.00135678
-0.00141949
-0.0014701
-0.00150877
-0.00153556
-0.00155052
-0.00155362
-0.00154481
-0.00152397
-0.00149098
-0.00144568
-0.00138787
-0.00131733
-0.00123383
-0.0011371
-0.00102685
-0.000902774
-0.000764549
-0.000611825
-0.000444235
-0.000261403
-6.29453e-05
0.000151522
0.000382383
0.000630019
0.000894808
0.00117714
0.00147742
0.00179604
0.00213342
0.00248998
0.00286614
0.00326231
0.00367891
0.00411637
0.00457514
0.00505566
0.00555839
0.00608381
0.00663242
0.0072047
0.00780118
0.00842235
0.00906875
0.00974089
0.0104393
0.0111647
0.0119175
0.0126984
0.0135079
0.0143468
0.0152157
0.0161152
0.017046
0.0180089
0.0190045
0.0200337
0.0210972
0.0221957
0.0233301
0.0245013
0.0257099
0.0269569
0.0282431
0.0295694
0.0309365
0.0323455
0.033797
0.035292
0.0368312
0.0384154
0.0400452
0.0417214
0.0434446
0.0452153
0.0470338
0.0489006
0.0508158
0.0527794
0.0547913
0.0568511
0.0589582
0.061112
0.0633112
0.0655545
0.0678403
0.0701665
0.0725306
0.0749299
0.0773611
0.0798205
0.082304
0.084807
0.0873243
0.0898504
0.0923792
0.0949042
0.0974183
0.0999141
0.102384
0.104819
0.107212
0.109553
0.111834
0.114046
0.11618
0.118226
0.120178
0.122025
0.123761
0.125379
0.126871
0.128233
0.129459
0.130546
0.131491
0.132293
0.13295
0.133465
0.133838
0.134073
0.134175
0.134148
0.133999
0.133734
0.13336
0.132887
0.132322
0.131673
0.130948
0.130155
0.129301
0.128392
0.127439
0.126454
0.12535
0.124054
0.00488204
0.00425739
0.00373793
0.00328507
0.00285477
0.00244876
0.00206912
0.00171466
0.00138416
0.00107662
0.000791095
0.000526614
0.000282232
5.70285e-05
-0.00014989
-0.000339379
-0.000512245
-0.00066925
-0.000811107
-0.000938469
-0.00105193
-0.00115201
-0.00123917
-0.00131379
-0.00137619
-0.00142663
-0.00146527
-0.00149222
-0.00150754
-0.00151123
-0.00150322
-0.00148341
-0.00145169
-0.00140786
-0.00135175
-0.00128311
-0.00120171
-0.00110726
-0.00099947
-0.000878014
-0.000742555
-0.000592729
-0.000428154
-0.000248446
-5.3216e-05
0.000157923
0.000385356
0.000629464
0.000890626
0.00116923
0.00146566
0.00178033
0.00211363
0.00246595
0.00283772
0.00322931
0.00364115
0.00407363
0.00452716
0.00500219
0.00549914
0.00601846
0.00656061
0.00712606
0.00771529
0.00832877
0.00896698
0.00963043
0.0103196
0.0110351
0.0117774
0.0125472
0.0133449
0.0141712
0.0150267
0.015912
0.0168278
0.0177748
0.0187536
0.0197651