/*--------------------------------*- C++ -*----------------------------------*\
  =========                 |
  \\      /  F ield         | OpenFOAM: The Open Source CFD Toolbox
   \\    /   O peration     | Website:  https://openfoam.org
    \\  /    A nd           | Version:  7
     \\/     M anipulation  |
\*---------------------------------------------------------------------------*/
FoamFile
{
    version     2.0;
    format      ascii;
    class       volVectorField;
    location    "0.1625";
    object      U;
}
// * * * * * * * * * * * * * * * * * * * * * * * * * * * * * * * * * * * * * //

dimensions      [0 1 -1 0 0 0 0];

internalField   nonuniform List<vector> 
12800
(
(3.62934e-06 -4.01428e-06 0)
(2.00286e-05 -1.06812e-05 0)
(4.66596e-05 -1.24433e-05 0)
(7.26861e-05 -1.1039e-05 0)
(9.09547e-05 -7.87099e-06 0)
(9.82938e-05 -3.85049e-06 0)
(9.29969e-05 5.06799e-07 0)
(7.4348e-05 4.90369e-06 0)
(4.22837e-05 9.17063e-06 0)
(-2.84179e-06 1.32139e-05 0)
(-6.04162e-05 1.69821e-05 0)
(-0.000129671 2.04488e-05 0)
(-0.000209742 2.36027e-05 0)
(-0.000299724 2.6444e-05 0)
(-0.000398701 2.89804e-05 0)
(-0.000505763 3.12258e-05 0)
(-0.000620033 3.31974e-05 0)
(-0.000740673 3.49133e-05 0)
(-0.00086689 3.63922e-05 0)
(-0.000997944 3.76538e-05 0)
(-0.00113315 3.87172e-05 0)
(-0.00127189 3.96015e-05 0)
(-0.00141358 4.03252e-05 0)
(-0.00155772 4.09057e-05 0)
(-0.00170383 4.13601e-05 0)
(-0.00185152 4.17049e-05 0)
(-0.00200042 4.19545e-05 0)
(-0.00215021 4.21221e-05 0)
(-0.00230062 4.22204e-05 0)
(-0.00245142 4.22605e-05 0)
(-0.0026024 4.22526e-05 0)
(-0.00275342 4.22061e-05 0)
(-0.00290432 4.21298e-05 0)
(-0.00305499 4.20304e-05 0)
(-0.00320537 4.19136e-05 0)
(-0.00335538 4.17853e-05 0)
(-0.00350497 4.16508e-05 0)
(-0.00365413 4.1515e-05 0)
(-0.00380284 4.13822e-05 0)
(-0.0039511 4.12556e-05 0)
(-0.00409892 4.1138e-05 0)
(-0.00424634 4.10311e-05 0)
(-0.00439338 4.09373e-05 0)
(-0.00454007 4.08587e-05 0)
(-0.00468648 4.07973e-05 0)
(-0.00483265 4.07545e-05 0)
(-0.00497865 4.07312e-05 0)
(-0.00512452 4.07283e-05 0)
(-0.00527035 4.07468e-05 0)
(-0.00541619 4.07875e-05 0)
(-0.00556214 4.08511e-05 0)
(-0.00570824 4.09382e-05 0)
(-0.0058546 4.10494e-05 0)
(-0.00600128 4.11852e-05 0)
(-0.00614837 4.1346e-05 0)
(-0.00629594 4.15321e-05 0)
(-0.00644409 4.17433e-05 0)
(-0.00659288 4.19796e-05 0)
(-0.00674241 4.22404e-05 0)
(-0.00689275 4.25254e-05 0)
(-0.00704397 4.28341e-05 0)
(-0.00719616 4.3166e-05 0)
(-0.00734939 4.35206e-05 0)
(-0.00750372 4.38965e-05 0)
(-0.00765922 4.42924e-05 0)
(-0.00781595 4.47065e-05 0)
(-0.00797396 4.5137e-05 0)
(-0.0081333 4.55824e-05 0)
(-0.00829401 4.60406e-05 0)
(-0.00845612 4.65095e-05 0)
(-0.00861964 4.69861e-05 0)
(-0.00878459 4.74669e-05 0)
(-0.00895096 4.79481e-05 0)
(-0.00911874 4.84258e-05 0)
(-0.0092879 4.88959e-05 0)
(-0.00945839 4.93538e-05 0)
(-0.00963015 4.97944e-05 0)
(-0.00980309 5.02121e-05 0)
(-0.00997712 5.0601e-05 0)
(-0.0101521 5.09548e-05 0)
(-0.0103279 5.12666e-05 0)
(-0.0105043 5.1529e-05 0)
(-0.0106812 5.17343e-05 0)
(-0.0108583 5.18747e-05 0)
(-0.0110353 5.19414e-05 0)
(-0.0112121 5.19251e-05 0)
(-0.0113882 5.1816e-05 0)
(-0.0115633 5.16038e-05 0)
(-0.0117371 5.12781e-05 0)
(-0.0119091 5.08284e-05 0)
(-0.0120788 5.02434e-05 0)
(-0.0122458 4.9512e-05 0)
(-0.0124096 4.86223e-05 0)
(-0.0125695 4.75624e-05 0)
(-0.012725 4.63201e-05 0)
(-0.0128754 4.48832e-05 0)
(-0.01302 4.324e-05 0)
(-0.0131582 4.13786e-05 0)
(-0.0132891 3.92876e-05 0)
(-0.013412 3.69556e-05 0)
(-0.013526 3.43721e-05 0)
(-0.0136303 3.15273e-05 0)
(-0.0137239 2.84122e-05 0)
(-0.0138061 2.50191e-05 0)
(-0.0138759 2.13414e-05 0)
(-0.0139322 1.73741e-05 0)
(-0.0139742 1.31138e-05 0)
(-0.0140009 8.55922e-06 0)
(-0.0140114 3.71127e-06 0)
(-0.0140047 -1.42636e-06 0)
(-0.0139799 -6.84768e-06 0)
(-0.0139362 -1.25437e-05 0)
(-0.0138725 -1.85026e-05 0)
(-0.0137883 -2.4709e-05 0)
(-0.0136827 -3.11444e-05 0)
(-0.013555 -3.77862e-05 0)
(-0.0134047 -4.46083e-05 0)
(-0.0132313 -5.15803e-05 0)
(-0.0130344 -5.86683e-05 0)
(-0.0128138 -6.58346e-05 0)
(-0.0125692 -7.30376e-05 0)
(-0.0123008 -8.02322e-05 0)
(-0.0120087 -8.73693e-05 0)
(-0.0116933 -9.4397e-05 0)
(-0.011355 -0.00010126 0)
(-0.0109945 -0.000107901 0)
(-0.0106127 -0.000114261 0)
(-0.0102108 -0.000120279 0)
(-0.00978984 -0.000125892 0)
(-0.00935144 -0.00013104 0)
(-0.00889722 -0.00013566 0)
(-0.00842904 -0.000139693 0)
(-0.00794895 -0.000143081 0)
(-0.00745915 -0.000145768 0)
(-0.00696203 -0.000147704 0)
(-0.00646015 -0.000148842 0)
(-0.00595618 -0.000149139 0)
(-0.00545292 -0.000148561 0)
(-0.00495328 -0.000147079 0)
(-0.00446023 -0.000144667 0)
(-0.00397682 -0.000141312 0)
(-0.00350613 -0.000137004 0)
(-0.00305122 -0.00013174 0)
(-0.00261518 -0.000125528 0)
(-0.00220103 -0.000118379 0)
(-0.00181172 -0.000110311 0)
(-0.00145013 -0.000101348 0)
(-0.001119 -9.15205e-05 0)
(-0.000820939 -8.08656e-05 0)
(-0.000558347 -6.94275e-05 0)
(-0.000333405 -5.72623e-05 0)
(-0.000147989 -4.44459e-05 0)
(-3.56676e-06 -3.10907e-05 0)
(9.89654e-05 -1.73798e-05 0)
(0.000159589 -3.6371e-06 0)
(0.000179669 9.53045e-06 0)
(0.000162709 2.09659e-05 0)
(0.000116102 2.84487e-05 0)
(5.64734e-05 2.77456e-05 0)
(1.31604e-05 1.31782e-05 0)
(1.02336e-05 -1.99382e-05 0)
(4.32903e-05 -4.37393e-05 0)
(8.94492e-05 -4.79964e-05 0)
(0.000128768 -3.86967e-05 0)
(0.000148284 -2.09381e-05 0)
(0.000140609 1.66892e-06 0)
(0.000101274 2.67213e-05 0)
(2.79413e-05 5.26346e-05 0)
(-8.01187e-05 7.83727e-05 0)
(-0.000222512 0.000103264 0)
(-0.000398078 0.000126883 0)
(-0.000605141 0.000148966 0)
(-0.000841693 0.000169363 0)
(-0.00110553 0.000188005 0)
(-0.00139436 0.000204881 0)
(-0.00170585 0.000220021 0)
(-0.00203773 0.000233485 0)
(-0.00238775 0.000245354 0)
(-0.00275382 0.000255722 0)
(-0.00313391 0.000264691 0)
(-0.00352617 0.000272369 0)
(-0.00392885 0.000278865 0)
(-0.00434036 0.000284287 0)
(-0.00475927 0.000288742 0)
(-0.00518424 0.000292332 0)
(-0.00561412 0.000295156 0)
(-0.00604786 0.000297306 0)
(-0.00648454 0.000298868 0)
(-0.00692334 0.000299922 0)
(-0.00736358 0.000300544 0)
(-0.00780466 0.000300799 0)
(-0.00824607 0.000300752 0)
(-0.0086874 0.000300457 0)
(-0.00912829 0.000299966 0)
(-0.00956847 0.000299324 0)
(-0.0100077 0.000298571 0)
(-0.0104459 0.000297744 0)
(-0.0108829 0.000296874 0)
(-0.0113187 0.000295991 0)
(-0.0117531 0.000295119 0)
(-0.0121864 0.000294282 0)
(-0.0126184 0.000293496 0)
(-0.0130492 0.00029278 0)
(-0.0134791 0.000292148 0)
(-0.013908 0.000291612 0)
(-0.0143361 0.000291185 0)
(-0.0147635 0.000290877 0)
(-0.0151905 0.000290695 0)
(-0.0156171 0.000290646 0)
(-0.0160437 0.000290738 0)
(-0.0164703 0.000290976 0)
(-0.0168972 0.000291364 0)
(-0.0173246 0.000291906 0)
(-0.0177528 0.000292605 0)
(-0.0181818 0.000293463 0)
(-0.018612 0.000294482 0)
(-0.0190436 0.00029566 0)
(-0.0194767 0.000296999 0)
(-0.0199117 0.000298494 0)
(-0.0203487 0.000300144 0)
(-0.020788 0.000301944 0)
(-0.0212297 0.000303889 0)
(-0.021674 0.000305971 0)
(-0.0221211 0.000308184 0)
(-0.0225712 0.000310517 0)
(-0.0230245 0.000312959 0)
(-0.023481 0.000315498 0)
(-0.0239409 0.000318118 0)
(-0.0244042 0.000320804 0)
(-0.0248711 0.000323537 0)
(-0.0253416 0.000326297 0)
(-0.0258157 0.000329061 0)
(-0.0262933 0.000331802 0)
(-0.0267743 0.000334493 0)
(-0.0272587 0.000337104 0)
(-0.0277464 0.000339601 0)
(-0.028237 0.00034195 0)
(-0.0287303 0.00034411 0)
(-0.0292261 0.000346043 0)
(-0.0297238 0.000347703 0)
(-0.0302232 0.000349044 0)
(-0.0307235 0.000350016 0)
(-0.0312244 0.000350566 0)
(-0.031725 0.000350638 0)
(-0.0322247 0.000350174 0)
(-0.0327226 0.000349113 0)
(-0.0332177 0.00034739 0)
(-0.0337092 0.000344938 0)
(-0.0341957 0.00034169 0)
(-0.0346763 0.000337573 0)
(-0.0351494 0.000332517 0)
(-0.0356138 0.000326446 0)
(-0.0360679 0.000319286 0)
(-0.0365101 0.000310961 0)
(-0.0369386 0.000301395 0)
(-0.0373516 0.000290512 0)
(-0.0377473 0.000278238 0)
(-0.0381235 0.000264502 0)
(-0.0384782 0.000249233 0)
(-0.0388091 0.000232364 0)
(-0.039114 0.000213835 0)
(-0.0393904 0.000193588 0)
(-0.0396359 0.000171574 0)
(-0.039848 0.000147752 0)
(-0.0400241 0.000122089 0)
(-0.0401618 9.45635e-05 0)
(-0.0402583 6.51642e-05 0)
(-0.0403111 3.38942e-05 0)
(-0.0403177 7.71024e-07 0)
(-0.0402755 -3.41715e-05 0)
(-0.0401821 -7.08827e-05 0)
(-0.040035 -0.000109293 0)
(-0.0398321 -0.000149314 0)
(-0.0395712 -0.000190835 0)
(-0.0392505 -0.000233725 0)
(-0.0388682 -0.00027783 0)
(-0.0384228 -0.000322972 0)
(-0.0379132 -0.000368949 0)
(-0.0373384 -0.000415537 0)
(-0.0366979 -0.000462487 0)
(-0.0359914 -0.000509528 0)
(-0.0352191 -0.000556367 0)
(-0.0343817 -0.00060269 0)
(-0.0334801 -0.000648164 0)
(-0.032516 -0.00069244 0)
(-0.0314913 -0.000735156 0)
(-0.0304086 -0.000775936 0)
(-0.0292708 -0.000814398 0)
(-0.0280817 -0.000850158 0)
(-0.0268451 -0.000882829 0)
(-0.0255659 -0.000912031 0)
(-0.0242491 -0.000937393 0)
(-0.0229002 -0.000958557 0)
(-0.0215256 -0.000975186 0)
(-0.0201315 -0.000986966 0)
(-0.0187251 -0.00099361 0)
(-0.0173136 -0.000994866 0)
(-0.0159046 -0.000990517 0)
(-0.014506 -0.000980388 0)
(-0.013126 -0.000964345 0)
(-0.0117726 -0.0009423 0)
(-0.0104543 -0.000914214 0)
(-0.00917943 -0.000880096 0)
(-0.00795613 -0.000840005 0)
(-0.00679256 -0.00079405 0)
(-0.00569661 -0.000742396 0)
(-0.00467588 -0.00068526 0)
(-0.00373756 -0.000622921 0)
(-0.00288834 -0.000555729 0)
(-0.00213429 -0.000484123 0)
(-0.00148065 -0.000408668 0)
(-0.000931663 -0.000330108 0)
(-0.000490187 -0.00024947 0)
(-0.000157245 -0.000168237 0)
(6.87209e-05 -8.86495e-05 0)
(0.000192935 -1.42287e-05 0)
(0.000225686 4.93749e-05 0)
(0.000184674 9.30173e-05 0)
(0.000101834 0.000102039 0)
(2.75868e-05 5.63636e-05 0)
(1.24769e-05 -4.67319e-05 0)
(4.83187e-05 -8.97501e-05 0)
(9.19063e-05 -9.14585e-05 0)
(0.000119505 -6.36624e-05 0)
(0.000115409 -1.62039e-05 0)
(7.00887e-05 4.34556e-05 0)
(-2.26154e-05 0.00010988 0)
(-0.000166183 0.000179206 0)
(-0.000361956 0.000248732 0)
(-0.000609678 0.000316592 0)
(-0.000907942 0.000381525 0)
(-0.00125452 0.000442702 0)
(-0.00164665 0.000499611 0)
(-0.00208117 0.000551972 0)
(-0.00255477 0.000599674 0)
(-0.00306401 0.000642733 0)
(-0.00360547 0.000681257 0)
(-0.00417581 0.000715421 0)
(-0.0047718 0.000745445 0)
(-0.00539036 0.000771583 0)
(-0.0060286 0.000794108 0)
(-0.00668382 0.000813305 0)
(-0.00735352 0.000829458 0)
(-0.00803543 0.000842851 0)
(-0.00872745 0.000853764 0)
(-0.00942772 0.000862461 0)
(-0.0101346 0.000869196 0)
(-0.0108465 0.00087421 0)
(-0.0115622 0.000877727 0)
(-0.0122805 0.000879953 0)
(-0.0130004 0.000881083 0)
(-0.0137211 0.000881291 0)
(-0.0144419 0.000880738 0)
(-0.0151622 0.00087957 0)
(-0.0158815 0.00087792 0)
(-0.0165995 0.000875904 0)
(-0.0173158 0.000873629 0)
(-0.0180302 0.00087119 0)
(-0.0187426 0.00086867 0)
(-0.019453 0.000866143 0)
(-0.0201613 0.000863677 0)
(-0.0208676 0.000861328 0)
(-0.0215719 0.000859148 0)
(-0.0222745 0.000857182 0)
(-0.0229754 0.000855468 0)
(-0.0236748 0.00085404 0)
(-0.024373 0.000852931 0)
(-0.0250702 0.000852166 0)
(-0.0257667 0.000851767 0)
(-0.0264628 0.000851754 0)
(-0.0271587 0.000852143 0)
(-0.0278548 0.000852949 0)
(-0.0285515 0.000854182 0)
(-0.0292489 0.00085585 0)
(-0.0299476 0.00085796 0)
(-0.0306477 0.000860514 0)
(-0.0313498 0.000863513 0)
(-0.032054 0.000866954 0)
(-0.0327607 0.00087083 0)
(-0.0334703 0.000875132 0)
(-0.0341831 0.000879846 0)
(-0.0348994 0.000884957 0)
(-0.0356195 0.000890444 0)
(-0.0363436 0.000896282 0)
(-0.037072 0.000902442 0)
(-0.0378049 0.000908892 0)
(-0.0385426 0.000915593 0)
(-0.0392852 0.000922501 0)
(-0.0400327 0.000929567 0)
(-0.0407854 0.000936736 0)
(-0.0415431 0.000943947 0)
(-0.0423059 0.000951132 0)
(-0.0430738 0.000958217 0)
(-0.0438465 0.000965119 0)
(-0.0446238 0.000971752 0)
(-0.0454055 0.000978017 0)
(-0.0461912 0.000983812 0)
(-0.0469804 0.000989026 0)
(-0.0477725 0.00099354 0)
(-0.0485671 0.000997226 0)
(-0.0493632 0.000999951 0)
(-0.05016 0.00100157 0)
(-0.0509565 0.00100193 0)
(-0.0517517 0.00100088 0)
(-0.0525443 0.000998246 0)
(-0.0533328 0.000993854 0)
(-0.054116 0.000987525 0)
(-0.0548919 0.000979072 0)
(-0.055659 0.000968299 0)
(-0.0564151 0.00095501 0)
(-0.0571583 0.000939 0)
(-0.0578862 0.000920064 0)
(-0.0585964 0.000897992 0)
(-0.0592863 0.000872577 0)
(-0.0599532 0.000843608 0)
(-0.0605942 0.00081088 0)
(-0.0612061 0.000774189 0)
(-0.0617859 0.00073334 0)
(-0.0623301 0.000688146 0)
(-0.0628352 0.000638429 0)
(-0.0632978 0.000584028 0)
(-0.0637139 0.000524795 0)
(-0.0640799 0.000460605 0)
(-0.0643918 0.000391355 0)
(-0.0646457 0.000316968 0)
(-0.0648375 0.000237396 0)
(-0.0649634 0.000152627 0)
(-0.0650192 6.26852e-05 0)
(-0.0650012 -3.23646e-05 0)
(-0.0649053 -0.000132412 0)
(-0.064728 -0.000237299 0)
(-0.0644656 -0.000346815 0)
(-0.0641148 -0.000460697 0)
(-0.0636723 -0.000578621 0)
(-0.0631354 -0.000700207 0)
(-0.0625016 -0.000825011 0)
(-0.0617686 -0.000952524 0)
(-0.0609348 -0.00108218 0)
(-0.0599988 -0.00121334 0)
(-0.0589601 -0.0013453 0)
(-0.0578184 -0.00147731 0)
(-0.0565742 -0.00160855 0)
(-0.0552285 -0.00173814 0)
(-0.0537832 -0.00186517 0)
(-0.0522407 -0.00198867 0)
(-0.0506044 -0.00210764 0)
(-0.0488783 -0.00222104 0)
(-0.0470672 -0.00232784 0)
(-0.0451767 -0.00242697 0)
(-0.0432132 -0.00251737 0)
(-0.0411841 -0.00259801 0)
(-0.0390972 -0.00266789 0)
(-0.0369614 -0.00272601 0)
(-0.034786 -0.00277148 0)
(-0.0325813 -0.00280342 0)
(-0.0303579 -0.00282108 0)
(-0.0281271 -0.00282376 0)
(-0.0259007 -0.00281089 0)
(-0.0236908 -0.00278199 0)
(-0.0215098 -0.00273671 0)
(-0.0193705 -0.00267484 0)
(-0.0172855 -0.00259627 0)
(-0.0152676 -0.00250108 0)
(-0.0133294 -0.00238946 0)
(-0.0114833 -0.00226177 0)
(-0.00974119 -0.00211852 0)
(-0.00811462 -0.0019604 0)
(-0.00661433 -0.0017883 0)
(-0.00525024 -0.00160336 0)
(-0.00403114 -0.00140697 0)
(-0.00296451 -0.00120096 0)
(-0.00205603 -0.000987678 0)
(-0.00130922 -0.000770267 0)
(-0.000724651 -0.00055307 0)
(-0.00029911 -0.000342238 0)
(-2.42906e-05 -0.00014669 0)
(0.000114623 2.0478e-05 0)
(0.000141016 0.00014014 0)
(9.30156e-05 0.000184819 0)
(2.82055e-05 0.000115658 0)
(1.12706e-05 -7.29259e-05 0)
(3.94899e-05 -0.000129377 0)
(6.47105e-05 -0.000119164 0)
(6.24773e-05 -6.15254e-05 0)
(1.63078e-05 2.86685e-05 0)
(-8.4251e-05 0.000139828 0)
(-0.000246129 0.00026315 0)
(-0.00047338 0.000392115 0)
(-0.000767671 0.000521972 0)
(-0.00112882 0.000649317 0)
(-0.00155525 0.000771752 0)
(-0.00204436 0.000887647 0)
(-0.0025928 0.000995944 0)
(-0.00319675 0.00109602 0)
(-0.00385208 0.00118757 0)
(-0.00455449 0.00127055 0)
(-0.00529966 0.00134509 0)
(-0.00608333 0.00141146 0)
(-0.00690133 0.00147003 0)
(-0.0077497 0.00152123 0)
(-0.00862467 0.00156556 0)
(-0.00952269 0.0016035 0)
(-0.0104405 0.0016356 0)
(-0.011375 0.00166237 0)
(-0.0123236 0.00168432 0)
(-0.0132836 0.00170195 0)
(-0.0142528 0.00171575 0)
(-0.0152292 0.00172615 0)
(-0.016211 0.00173359 0)
(-0.0171966 0.00173847 0)
(-0.0181847 0.00174115 0)
(-0.0191741 0.00174197 0)
(-0.0201639 0.00174125 0)
(-0.0211531 0.00173926 0)
(-0.0221411 0.00173626 0)
(-0.0231273 0.00173249 0)
(-0.0241113 0.00172815 0)
(-0.0250928 0.00172344 0)
(-0.0260716 0.0017185 0)
(-0.0270476 0.0017135 0)
(-0.0280206 0.00170857 0)
(-0.0289908 0.00170382 0)
(-0.0299581 0.00169935 0)
(-0.0309228 0.00169526 0)
(-0.0318851 0.00169163 0)
(-0.0328451 0.00168852 0)
(-0.0338032 0.00168599 0)
(-0.0347597 0.00168411 0)
(-0.0357149 0.00168291 0)
(-0.0366691 0.00168244 0)
(-0.0376228 0.00168273 0)
(-0.0385764 0.0016838 0)
(-0.0395303 0.00168568 0)
(-0.0404848 0.00168839 0)
(-0.0414406 0.00169194 0)
(-0.0423979 0.00169633 0)
(-0.0433572 0.00170156 0)
(-0.0443191 0.00170762 0)
(-0.0452838 0.00171451 0)
(-0.0462519 0.0017222 0)
(-0.0472238 0.00173067 0)
(-0.0481998 0.00173988 0)
(-0.0491803 0.00174979 0)
(-0.0501656 0.00176036 0)
(-0.0511562 0.00177152 0)
(-0.0521521 0.0017832 0)
(-0.0531538 0.00179534 0)
(-0.0541613 0.00180783 0)
(-0.0551749 0.00182059 0)
(-0.0561945 0.00183351 0)
(-0.0572202 0.00184646 0)
(-0.0582519 0.0018593 0)
(-0.0592895 0.0018719 0)
(-0.0603327 0.00188409 0)
(-0.0613812 0.00189569 0)
(-0.0624346 0.00190652 0)
(-0.0634924 0.00191638 0)
(-0.0645538 0.00192504 0)
(-0.0656181 0.00193228 0)
(-0.0666844 0.00193784 0)
(-0.0677517 0.00194147 0)
(-0.0688187 0.00194288 0)
(-0.069884 0.00194179 0)
(-0.0709462 0.00193788 0)
(-0.0720036 0.00193084 0)
(-0.0730542 0.00192032 0)
(-0.074096 0.00190598 0)
(-0.0751267 0.00188746 0)
(-0.076144 0.00186439 0)
(-0.0771451 0.00183639 0)
(-0.0781273 0.00180308 0)
(-0.0790874 0.00176405 0)
(-0.0800221 0.00171892 0)
(-0.0809281 0.00166729 0)
(-0.0818016 0.00160877 0)
(-0.0826388 0.00154298 0)
(-0.0834356 0.00146952 0)
(-0.0841877 0.00138805 0)
(-0.0848906 0.0012982 0)
(-0.0855398 0.00119967 0)
(-0.0861305 0.00109215 0)
(-0.0866579 0.000975388 0)
(-0.0871168 0.000849151 0)
(-0.0875022 0.000713265 0)
(-0.087809 0.000567603 0)
(-0.0880319 0.000412098 0)
(-0.0881657 0.000246746 0)
(-0.0882054 7.16177e-05 0)
(-0.0881458 -0.000113141 0)
(-0.0879819 -0.000307296 0)
(-0.0877091 -0.000510525 0)
(-0.0873227 -0.000722403 0)
(-0.0868184 -0.000942408 0)
(-0.0861922 -0.0011699 0)
(-0.0854407 -0.00140414 0)
(-0.0845606 -0.00164427 0)
(-0.0835493 -0.0018893 0)
(-0.0824047 -0.00213813 0)
(-0.0811254 -0.00238955 0)
(-0.0797106 -0.00264222 0)
(-0.0781602 -0.0028947 0)
(-0.0764752 -0.00314542 0)
(-0.0746569 -0.00339274 0)
(-0.0727081 -0.00363492 0)
(-0.0706321 -0.00387011 0)
(-0.0684333 -0.00409645 0)
(-0.0661172 -0.00431199 0)
(-0.0636901 -0.00451475 0)
(-0.0611596 -0.00470276 0)
(-0.0585341 -0.00487404 0)
(-0.0558231 -0.00502663 0)
(-0.0530371 -0.00515866 0)
(-0.0501875 -0.00526829 0)
(-0.0472867 -0.00535381 0)
(-0.044348 -0.00541364 0)
(-0.0413852 -0.00544632 0)
(-0.038413 -0.00545059 0)
(-0.0354469 -0.00542538 0)
(-0.0325024 -0.0053698 0)
(-0.0295957 -0.00528323 0)
(-0.0267433 -0.00516528 0)
(-0.0239616 -0.00501581 0)
(-0.0212672 -0.00483497 0)
(-0.0186761 -0.00462319 0)
(-0.0162045 -0.00438122 0)
(-0.0138676 -0.00411012 0)
(-0.01168 -0.00381131 0)
(-0.00965547 -0.00348664 0)
(-0.00780641 -0.00313839 0)
(-0.00614378 -0.00276948 0)
(-0.00467666 -0.00238356 0)
(-0.00341179 -0.00198534 0)
(-0.00235303 -0.00158095 0)
(-0.00150063 -0.00117856 0)
(-0.000850235 -0.000789262 0)
(-0.000391785 -0.000428381 0)
(-0.00010816 -0.000117243 0)
(2.65103e-05 0.000114704 0)
(5.11393e-05 0.000227164 0)
(2.09147e-05 0.00016226 0)
(8.23737e-06 -9.18688e-05 0)
(2.18879e-05 -0.0001494 0)
(1.69838e-05 -0.000115066 0)
(-2.88327e-05 -1.52156e-05 0)
(-0.000131367 0.000130315 0)
(-0.000301137 0.000305876 0)
(-0.000545158 0.000499297 0)
(-0.000867537 0.000701328 0)
(-0.00126996 0.000905037 0)
(-0.00175214 0.00110531 0)
(-0.00231231 0.00129845 0)
(-0.00294751 0.00148188 0)
(-0.00365395 0.00165385 0)
(-0.00442726 0.00181328 0)
(-0.00526265 0.00195961 0)
(-0.00615514 0.00209267 0)
(-0.00709968 0.00221259 0)
(-0.00809124 0.0023197 0)
(-0.00912489 0.00241454 0)
(-0.0101959 0.00249772 0)
(-0.0112998 0.00256998 0)
(-0.0124322 0.00263207 0)
(-0.0135893 0.0026848 0)
(-0.0147672 0.00272897 0)
(-0.0159628 0.00276536 0)
(-0.0171728 0.00279476 0)
(-0.0183945 0.00281792 0)
(-0.0196254 0.00283555 0)
(-0.0208632 0.00284832 0)
(-0.0221061 0.00285687 0)
(-0.0233522 0.00286178 0)
(-0.0246001 0.00286359 0)
(-0.0258485 0.00286281 0)
(-0.0270964 0.0028599 0)
(-0.0283429 0.00285526 0)
(-0.0295871 0.00284928 0)
(-0.0308287 0.0028423 0)
(-0.032067 0.00283461 0)
(-0.0333019 0.0028265 0)
(-0.034533 0.00281821 0)
(-0.0357604 0.00280995 0)
(-0.0369839 0.00280192 0)
(-0.0382038 0.00279429 0)
(-0.0394201 0.00278721 0)
(-0.040633 0.00278082 0)
(-0.0418428 0.00277523 0)
(-0.0430498 0.00277054 0)
(-0.0442544 0.00276685 0)
(-0.0454569 0.00276424 0)
(-0.0466578 0.00276276 0)
(-0.0478576 0.00276248 0)
(-0.0490568 0.00276343 0)
(-0.0502557 0.00276567 0)
(-0.0514551 0.00276921 0)
(-0.0526552 0.00277408 0)
(-0.0538568 0.00278028 0)
(-0.0550603 0.00278781 0)
(-0.0562663 0.00279666 0)
(-0.0574752 0.0028068 0)
(-0.0586876 0.00281821 0)
(-0.059904 0.00283084 0)
(-0.0611248 0.00284463 0)
(-0.0623505 0.00285951 0)
(-0.0635814 0.00287541 0)
(-0.0648179 0.00289221 0)
(-0.0660604 0.00290982 0)
(-0.067309 0.0029281 0)
(-0.0685641 0.00294691 0)
(-0.0698256 0.00296608 0)
(-0.0710937 0.00298543 0)
(-0.0723684 0.00300477 0)
(-0.0736495 0.00302387 0)
(-0.0749368 0.00304249 0)
(-0.0762299 0.00306037 0)
(-0.0775285 0.00307722 0)
(-0.0788319 0.00309273 0)
(-0.0801394 0.00310658 0)
(-0.0814502 0.00311841 0)
(-0.0827632 0.00312784 0)
(-0.0840774 0.00313446 0)
(-0.0853912 0.00313787 0)
(-0.0867033 0.00313759 0)
(-0.0880118 0.00313317 0)
(-0.0893148 0.00312411 0)
(-0.0906103 0.00310988 0)
(-0.0918958 0.00308996 0)
(-0.0931687 0.00306377 0)
(-0.0944263 0.00303076 0)
(-0.0956655 0.00299032 0)
(-0.096883 0.00294186 0)
(-0.0980753 0.00288476 0)
(-0.0992385 0.0028184 0)
(-0.100369 0.00274216 0)
(-0.101462 0.00265541 0)
(-0.102513 0.00255754 0)
(-0.103517 0.00244794 0)
(-0.10447 0.00232602 0)
(-0.105367 0.00219122 0)
(-0.106201 0.00204301 0)
(-0.106967 0.00188089 0)
(-0.10766 0.00170441 0)
(-0.108273 0.00151317 0)
(-0.108801 0.00130686 0)
(-0.109237 0.0010852 0)
(-0.109576 0.000848037 0)
(-0.10981 0.000595282 0)
(-0.109934 0.000326964 0)
(-0.109942 4.32233e-05 0)
(-0.109827 -0.000255672 0)
(-0.109585 -0.000569323 0)
(-0.109208 -0.000897181 0)
(-0.108692 -0.00123855 0)
(-0.108032 -0.00159255 0)
(-0.107222 -0.00195817 0)
(-0.10626 -0.00233419 0)
(-0.105141 -0.00271922 0)
(-0.103862 -0.00311168 0)
(-0.102422 -0.00350982 0)
(-0.100818 -0.00391168 0)
(-0.0990497 -0.00431516 0)
(-0.0971173 -0.00471794 0)
(-0.095022 -0.00511756 0)
(-0.0927658 -0.00551142 0)
(-0.090352 -0.00589674 0)
(-0.0877849 -0.00627067 0)
(-0.0850698 -0.00663021 0)
(-0.0822135 -0.00697234 0)
(-0.0792237 -0.00729394 0)
(-0.0761095 -0.00759191 0)
(-0.0728813 -0.00786315 0)
(-0.0695503 -0.00810461 0)
(-0.0661294 -0.00831332 0)
(-0.0626322 -0.00848644 0)
(-0.0590735 -0.0086213 0)
(-0.0554693 -0.0087154 0)
(-0.0518362 -0.00876649 0)
(-0.0481918 -0.0087726 0)
(-0.0445544 -0.00873206 0)
(-0.0409428 -0.00864351 0)
(-0.0373763 -0.008506 0)
(-0.0338745 -0.00831893 0)
(-0.030457 -0.00808216 0)
(-0.0271434 -0.00779596 0)
(-0.023953 -0.00746109 0)
(-0.0209047 -0.00707882 0)
(-0.0180168 -0.00665093 0)
(-0.0153064 -0.00617983 0)
(-0.0127896 -0.00566857 0)
(-0.0104808 -0.005121 0)
(-0.00839291 -0.00454192 0)
(-0.00653616 -0.00393735 0)
(-0.00491822 -0.00331484 0)
(-0.00354338 -0.00268408 0)
(-0.00241185 -0.00205761 0)
(-0.00151895 -0.00145189 0)
(-0.0008541 -0.000888829 0)
(-0.000399697 -0.000397749 0)
(-0.000129739 -1.76686e-05 0)
(-8.42376e-06 0.000199653 0)
(1.01022e-05 0.000180591 0)
(4.25964e-06 -9.98657e-05 0)
(-1.10397e-06 -0.000141746 0)
(-4.44704e-05 -6.86219e-05 0)
(-0.000144085 8.70913e-05 0)
(-0.000313936 0.000300996 0)
(-0.000563929 0.000553619 0)
(-0.000900605 0.000829583 0)
(-0.00132769 0.00111696 0)
(-0.00184656 0.00140664 0)
(-0.00245665 0.00169174 0)
(-0.00315586 0.0019672 0)
(-0.00394088 0.00222937 0)
(-0.00480748 0.00247577 0)
(-0.0057508 0.00270479 0)
(-0.00676552 0.00291554 0)
(-0.00784608 0.00310767 0)
(-0.00898681 0.00328126 0)
(-0.010182 0.00343674 0)
(-0.0114262 0.00357476 0)
(-0.0127139 0.00369617 0)
(-0.0140399 0.00380192 0)
(-0.0153995 0.00389306 0)
(-0.0167881 0.0039707 0)
(-0.0182013 0.00403595 0)
(-0.0196353 0.00408992 0)
(-0.0210864 0.00413371 0)
(-0.0225515 0.00416837 0)
(-0.0240275 0.00419492 0)
(-0.0255119 0.00421432 0)
(-0.0270024 0.00422748 0)
(-0.0284968 0.00423523 0)
(-0.0299934 0.00423836 0)
(-0.0314906 0.00423761 0)
(-0.0329872 0.00423362 0)
(-0.0344821 0.004227 0)
(-0.0359743 0.00421832 0)
(-0.0374632 0.00420805 0)
(-0.0389482 0.00419666 0)
(-0.0404288 0.00418454 0)
(-0.0419049 0.00417207 0)
(-0.0433762 0.00415955 0)
(-0.0448426 0.00414728 0)
(-0.0463044 0.00413551 0)
(-0.0477615 0.00412447 0)
(-0.0492142 0.00411436 0)
(-0.0506628 0.00410536 0)
(-0.0521076 0.00409761 0)
(-0.053549 0.00409127 0)
(-0.0549875 0.00408643 0)
(-0.0564235 0.00408321 0)
(-0.0578576 0.00408169 0)
(-0.0592902 0.00408194 0)
(-0.0607221 0.004084 0)
(-0.0621536 0.00408793 0)
(-0.0635855 0.00409374 0)
(-0.0650184 0.00410146 0)
(-0.0664527 0.00411107 0)
(-0.0678892 0.00412255 0)
(-0.0693285 0.00413589 0)
(-0.070771 0.00415101 0)
(-0.0722173 0.00416787 0)
(-0.073668 0.00418636 0)
(-0.0751235 0.00420639 0)
(-0.0765844 0.00422784 0)
(-0.0780508 0.00425054 0)
(-0.0795233 0.00427435 0)
(-0.0810021 0.00429906 0)
(-0.0824873 0.00432446 0)
(-0.0839792 0.00435031 0)
(-0.0854776 0.00437633 0)
(-0.0869826 0.00440224 0)
(-0.0884939 0.0044277 0)
(-0.0900112 0.00445236 0)
(-0.0915342 0.00447583 0)
(-0.0930622 0.00449769 0)
(-0.0945944 0.00451749 0)
(-0.0961301 0.00453474 0)
(-0.0976682 0.00454894 0)
(-0.0992074 0.00455951 0)
(-0.100746 0.00456588 0)
(-0.102283 0.00456743 0)
(-0.103816 0.0045635 0)
(-0.105343 0.0045534 0)
(-0.106863 0.00453642 0)
(-0.108371 0.00451181 0)
(-0.109866 0.0044788 0)
(-0.111344 0.00443657 0)
(-0.112802 0.0043843 0)
(-0.114236 0.00432114 0)
(-0.115644 0.00424623 0)
(-0.117019 0.00415869 0)
(-0.118359 0.00405764 0)
(-0.119658 0.00394218 0)
(-0.120911 0.00381143 0)
(-0.122113 0.00366452 0)
(-0.123259 0.0035006 0)
(-0.124343 0.00331884 0)
(-0.125358 0.00311845 0)
(-0.126299 0.00289869 0)
(-0.127158 0.00265888 0)
(-0.12793 0.00239839 0)
(-0.128608 0.0021167 0)
(-0.129184 0.00181336 0)
(-0.129652 0.00148804 0)
(-0.130004 0.00114053 0)
(-0.130234 0.000770765 0)
(-0.130334 0.000378814 0)
(-0.130297 -3.50791e-05 0)
(-0.130118 -0.000470492 0)
(-0.129788 -0.00092681 0)
(-0.129302 -0.00140321 0)
(-0.128654 -0.00189865 0)
(-0.127838 -0.00241186 0)
(-0.126849 -0.00294133 0)
(-0.125682 -0.00348528 0)
(-0.124334 -0.00404172 0)
(-0.122801 -0.00460835 0)
(-0.12108 -0.00518264 0)
(-0.119171 -0.00576181 0)
(-0.117073 -0.0063428 0)
(-0.114785 -0.00692233 0)
(-0.11231 -0.00749688 0)
(-0.109649 -0.00806271 0)
(-0.106807 -0.00861591 0)
(-0.10379 -0.00915239 0)
(-0.100602 -0.00966791 0)
(-0.0972518 -0.0101582 0)
(-0.0937487 -0.0106188 0)
(-0.090103 -0.0110453 0)
(-0.0863263 -0.0114334 0)
(-0.0824319 -0.0117786 0)
(-0.0784342 -0.012077 0)
(-0.074349 -0.0123243 0)
(-0.070193 -0.0125169 0)
(-0.0659845 -0.0126512 0)
(-0.0617425 -0.012724 0)
(-0.0574869 -0.0127326 0)
(-0.0532387 -0.0126746 0)
(-0.0490193 -0.0125481 0)
(-0.0448505 -0.0123518 0)
(-0.0407546 -0.0120849 0)
(-0.036754 -0.0117472 0)
(-0.0328709 -0.0113392 0)
(-0.0291272 -0.010862 0)
(-0.0255443 -0.0103176 0)
(-0.0221427 -0.0097087 0)
(-0.018942 -0.00903876 0)
(-0.0159602 -0.00831237 0)
(-0.0132135 -0.00753522 0)
(-0.0107162 -0.00671432 0)
(-0.00847977 -0.00585838 0)
(-0.00651287 -0.00497822 0)
(-0.00482039 -0.00408737 0)
(-0.00340301 -0.00320298 0)
(-0.00225646 -0.00234695 0)
(-0.00137078 -0.00154754 0)
(-0.000729358 -0.000841412 0)
(-0.000307827 -0.000275944 0)
(-7.61623e-05 8.77058e-05 0)
(-1.92139e-06 0.000164595 0)
(-1.78719e-07 -9.49033e-05 0)
(-2.73119e-05 -0.00010102 0)
(-0.000114833 2.77896e-05 0)
(-0.000275623 0.000254315 0)
(-0.000521018 0.000550204 0)
(-0.000859769 0.000892566 0)
(-0.00129748 0.00126307 0)
(-0.00183712 0.00164728 0)
(-0.00247947 0.00203399 0)
(-0.00322346 0.00241459 0)
(-0.00406654 0.00278265 0)
(-0.00500496 0.00313345 0)
(-0.00603404 0.0034637 0)
(-0.00714843 0.00377124 0)
(-0.00834233 0.0040548 0)
(-0.00960966 0.00431385 0)
(-0.0109442 0.0045484 0)
(-0.0123397 0.00475893 0)
(-0.0137901 0.00494622 0)
(-0.0152895 0.00511133 0)
(-0.0168321 0.00525548 0)
(-0.0184124 0.00538002 0)
(-0.0200255 0.00548637 0)
(-0.0216666 0.00557597 0)
(-0.0233312 0.0056503 0)
(-0.0250153 0.00571079 0)
(-0.0267153 0.00575884 0)
(-0.0284277 0.00579579 0)
(-0.0301497 0.00582294 0)
(-0.0318786 0.00584148 0)
(-0.0336119 0.00585256 0)
(-0.0353477 0.00585723 0)
(-0.0370842 0.00585647 0)
(-0.0388198 0.00585117 0)
(-0.0405533 0.00584216 0)
(-0.0422836 0.00583019 0)
(-0.0440098 0.00581593 0)
(-0.0457312 0.00580001 0)
(-0.0474474 0.00578298 0)
(-0.049158 0.00576533 0)
(-0.0508628 0.00574751 0)
(-0.0525617 0.00572993 0)
(-0.0542546 0.00571293 0)
(-0.0559418 0.00569683 0)
(-0.0576234 0.00568191 0)
(-0.0592997 0.00566842 0)
(-0.0609711 0.00565656 0)
(-0.062638 0.00564654 0)
(-0.0643008 0.00563852 0)
(-0.0659601 0.00563263 0)
(-0.0676165 0.00562899 0)
(-0.0692706 0.00562771 0)
(-0.0709229 0.00562885 0)
(-0.0725741 0.00563247 0)
(-0.0742248 0.0056386 0)
(-0.0758758 0.00564727 0)
(-0.0775276 0.00565847 0)
(-0.079181 0.00567216 0)
(-0.0808366 0.00568831 0)
(-0.0824949 0.00570684 0)
(-0.0841566 0.00572766 0)
(-0.0858223 0.00575064 0)
(-0.0874925 0.00577564 0)
(-0.0891676 0.00580248 0)
(-0.0908481 0.00583096 0)
(-0.0925343 0.00586085 0)
(-0.0942264 0.00589187 0)
(-0.0959247 0.00592373 0)
(-0.0976293 0.0059561 0)
(-0.0993401 0.00598859 0)
(-0.101057 0.0060208 0)
(-0.10278 0.00605229 0)
(-0.104508 0.00608255 0)
(-0.106241 0.00611106 0)
(-0.107978 0.00613724 0)
(-0.109719 0.00616047 0)
(-0.111462 0.00618009 0)
(-0.113206 0.0061954 0)
(-0.114949 0.00620563 0)
(-0.116691 0.00620998 0)
(-0.118428 0.00620762 0)
(-0.120159 0.00619766 0)
(-0.121882 0.00617917 0)
(-0.123593 0.00615116 0)
(-0.125291 0.00611265 0)
(-0.12697 0.00606256 0)
(-0.128629 0.00599983 0)
(-0.130263 0.00592334 0)
(-0.131869 0.00583196 0)
(-0.133441 0.00572452 0)
(-0.134975 0.00559985 0)
(-0.136467 0.00545678 0)
(-0.13791 0.00529412 0)
(-0.139299 0.0051107 0)
(-0.140628 0.00490537 0)
(-0.141892 0.004677 0)
(-0.143083 0.00442451 0)
(-0.144194 0.00414687 0)
(-0.14522 0.00384311 0)
(-0.146152 0.00351234 0)
(-0.146983 0.00315378 0)
(-0.147706 0.00276675 0)
(-0.148313 0.0023507 0)
(-0.148796 0.00190522 0)
(-0.149148 0.00143009 0)
(-0.14936 0.000925246 0)
(-0.149426 0.000390846 0)
(-0.149336 -0.00017274 0)
(-0.149084 -0.000764898 0)
(-0.148663 -0.00138476 0)
(-0.148066 -0.00203117 0)
(-0.147286 -0.00270271 0)
(-0.146317 -0.00339761 0)
(-0.145153 -0.00411383 0)
(-0.143791 -0.00484896 0)
(-0.142225 -0.00560029 0)
(-0.140451 -0.00636474 0)
(-0.138469 -0.00713891 0)
(-0.136275 -0.00791905 0)
(-0.13387 -0.00870108 0)
(-0.131254 -0.00948061 0)
(-0.128428 -0.0102529 0)
(-0.125396 -0.0110131 0)
(-0.122162 -0.0117559 0)
(-0.118732 -0.0124759 0)
(-0.115113 -0.0131674 0)
(-0.111313 -0.0138248 0)
(-0.107343 -0.0144422 0)
(-0.103213 -0.0150137 0)
(-0.0989383 -0.0155336 0)
(-0.0945319 -0.0159961 0)
(-0.0900103 -0.0163957 0)
(-0.0853907 -0.016727 0)
(-0.0806919 -0.0169851 0)