/*--------------------------------*- C++ -*----------------------------------*\
  =========                 |
  \\      /  F ield         | OpenFOAM: The Open Source CFD Toolbox
   \\    /   O peration     | Website:  https://openfoam.org
    \\  /    A nd           | Version:  7
     \\/     M anipulation  |
\*---------------------------------------------------------------------------*/
FoamFile
{
    version     2.0;
    format      ascii;
    class       volScalarField;
    location    "0.225";
    object      p;
}
// * * * * * * * * * * * * * * * * * * * * * * * * * * * * * * * * * * * * * //

dimensions      [0 2 -2 0 0 0 0];

internalField   nonuniform List<scalar> 
51200
(
1.60779e-07
-1.71833e-06
-1.04239e-06
4.05899e-06
1.21501e-05
2.18232e-05
3.23784e-05
4.32984e-05
5.44054e-05
6.55354e-05
7.65776e-05
8.73481e-05
9.77782e-05
0.000107748
0.00011724
0.000126135
0.000134407
0.000141966
0.000148796
0.000154801
0.000159983
0.000164331
0.00016776
0.0001703
0.000171888
0.000172499
0.000172181
0.000170884
0.00016861
0.000165376
0.000161128
0.000155906
0.000149733
0.000142573
0.000134462
0.000125416
0.000115407
0.000104471
9.2649e-05
7.99084e-05
6.62731e-05
5.17831e-05
3.64286e-05
2.02255e-05
3.22964e-06
-1.45642e-05
-3.31484e-05
-5.24846e-05
-7.25478e-05
-9.33455e-05
-0.000114851
-0.00013702
-0.00015985
-0.000183312
-0.00020736
-0.000231984
-0.000257176
-0.000282905
-0.000309141
-0.000335864
-0.000363055
-0.000390688
-0.000418755
-0.000447236
-0.00047609
-0.000505281
-0.000534781
-0.000564568
-0.000594635
-0.00062498
-0.000655583
-0.000686409
-0.000717416
-0.000748577
-0.000779867
-0.00081127
-0.00084278
-0.000874386
-0.000906054
-0.000937746
-0.000969435
-0.00100111
-0.00103276
-0.00106434
-0.00109584
-0.00112723
-0.00115849
-0.00118959
-0.00122052
-0.00125125
-0.00128178
-0.00131205
-0.00134206
-0.00137178
-0.0014012
-0.0014303
-0.00145902
-0.00148737
-0.00151532
-0.00154286
-0.00156996
-0.00159659
-0.00162273
-0.00164837
-0.00167346
-0.00169799
-0.00172193
-0.00174528
-0.00176801
-0.00179008
-0.00181148
-0.00183221
-0.00185223
-0.00187154
-0.00189009
-0.00190787
-0.00192486
-0.00194107
-0.00195645
-0.00197098
-0.00198466
-0.00199746
-0.00200939
-0.0020204
-0.0020305
-0.00203967
-0.00204789
-0.00205517
-0.00206149
-0.00206684
-0.00207123
-0.00207467
-0.00207714
-0.00207865
-0.00207919
-0.00207878
-0.00207745
-0.00207521
-0.00207207
-0.00206805
-0.00206319
-0.00205752
-0.00205109
-0.00204396
-0.00203619
-0.00202785
-0.00201903
-0.00200982
-0.00200033
-0.00199069
-0.00198104
-0.00197158
-0.00196248
-0.00195398
-0.00194634
-0.00193983
-0.00193477
-0.00193146
-0.00193017
-0.00193064
3.08587e-06
2.28922e-06
3.54731e-06
7.8428e-06
1.42963e-05
2.22182e-05
3.10602e-05
4.03874e-05
5.00297e-05
5.98153e-05
6.95924e-05
7.91648e-05
8.85037e-05
9.75003e-05
0.000106029
0.000114064
0.000121481
0.000128285
0.0001344
0.000139773
0.000144381
0.000148155
0.000151105
0.000153201
0.000154391
0.000154701
0.000154072
0.00015251
0.000150055
0.000146631
0.000142266
0.000136988
0.000130743
0.000123567
0.000115493
0.000106481
9.65582e-05
8.57641e-05
7.40605e-05
6.14778e-05
4.80593e-05
3.37774e-05
1.86565e-05
2.73473e-06
-1.39809e-05
-3.14876e-05
-4.97497e-05
-6.87322e-05
-8.84539e-05
-0.00010888
-0.000129973
-0.000151742
-0.000174162
-0.000197179
-0.000220781
-0.000244963
-0.000269691
-0.000294941
-0.000320714
-0.00034697
-0.000373668
-0.0004008
-0.000428352
-0.000456299
-0.000484616
-0.000513286
-0.000542274
-0.000571541
-0.000601077
-0.000630877
-0.00066092
-0.00069118
-0.000721632
-0.000752251
-0.000783
-0.000813849
-0.000844797
-0.000875836
-0.000906938
-0.000938068
-0.000969209
-0.00100034
-0.00103142
-0.00106244
-0.00109338
-0.00112422
-0.00115493
-0.00118547
-0.00121585
-0.00124604
-0.00127602
-0.00130575
-0.00133522
-0.00136441
-0.0013933
-0.00142186
-0.00145006
-0.00147789
-0.00150534
-0.00153238
-0.00155897
-0.00158511
-0.00161078
-0.00163594
-0.00166057
-0.00168464
-0.00170814
-0.00173106
-0.00175336
-0.00177503
-0.00179604
-0.00181639
-0.00183606
-0.00185501
-0.00187324
-0.00189072
-0.00190744
-0.00192337
-0.00193849
-0.00195279
-0.00196627
-0.00197891
-0.00199069
-0.00200159
-0.00201161
-0.00202073
-0.00202894
-0.00203624
-0.0020426
-0.00204803
-0.00205255
-0.00205615
-0.00205884
-0.0020606
-0.00206145
-0.00206141
-0.00206047
-0.00205867
-0.00205602
-0.00205254
-0.00204829
-0.0020433
-0.0020376
-0.00203125
-0.0020243
-0.00201686
-0.00200899
-0.00200078
-0.00199235
-0.0019838
-0.00197528
-0.00196695
-0.00195899
-0.00195158
-0.00194495
-0.00193931
-0.0019349
-0.00193192
-0.00193065
-0.0019311
4.69844e-06
4.34591e-06
5.80837e-06
9.48088e-06
1.49049e-05
2.15973e-05
2.92222e-05
3.74193e-05
4.59571e-05
5.47114e-05
6.3518e-05
7.22066e-05
8.06694e-05
8.88386e-05
9.66413e-05
0.000103944
0.000110733
0.000116907
0.000122429
0.000127298
0.000131404
0.000134754
0.000137307
0.000139002
0.000139897
0.00013991
0.000139027
0.000137283
0.000134622
0.000131052
0.000126603
0.000121224
0.000114932
0.000107764
9.96751e-05
9.06946e-05
8.08519e-05
7.01285e-05
5.85277e-05
4.60977e-05
3.28194e-05
1.86992e-05
3.78165e-06
-1.19181e-05
-2.84157e-05
-4.56634e-05
-6.36408e-05
-8.23618e-05
-0.000101792
-0.000121889
-0.00014266
-0.000164095
-0.000186152
-0.000208816
-0.000232074
-0.000255887
-0.000280224
-0.000305086
-0.000330459
-0.000356304
-0.000382595
-0.00040932
-0.000436438
-0.000463928
-0.000491797
-0.000520027
-0.000548577
-0.000577415
-0.000606521
-0.000635868
-0.000665431
-0.000695206
-0.000725186
-0.000755341
-0.000785631
-0.000816026
-0.000846517
-0.000877081
-0.000907693
-0.000938345
-0.000969022
-0.000999686
-0.0010303
-0.00106085
-0.00109132
-0.00112169
-0.00115193
-0.00118201
-0.00121192
-0.00124166
-0.00127118
-0.00130045
-0.00132947
-0.00135821
-0.00138665
-0.00141476
-0.00144252
-0.00146993
-0.00149696
-0.00152357
-0.00154974
-0.00157547
-0.00160073
-0.0016255
-0.00164974
-0.00167344
-0.00169658
-0.00171913
-0.00174108
-0.00176241
-0.0017831
-0.00180315
-0.00182252
-0.00184118
-0.00185913
-0.00187636
-0.00189285
-0.00190856
-0.00192349
-0.00193761
-0.00195093
-0.00196344
-0.0019751
-0.00198591
-0.00199586
-0.00200495
-0.00201316
-0.00202047
-0.00202689
-0.00203242
-0.00203705
-0.00204079
-0.00204365
-0.00204562
-0.00204672
-0.00204698
-0.00204639
-0.00204496
-0.00204271
-0.00203969
-0.00203593
-0.00203147
-0.00202635
-0.00202062
-0.00201435
-0.00200761
-0.00200048
-0.00199304
-0.0019854
-0.00197767
-0.00196998
-0.00196248
-0.0019553
-0.00194863
-0.00194265
-0.00193756
-0.00193352
-0.00193071
-0.00192943
-0.00192984
4.11246e-06
4.39008e-06
6.12242e-06
9.45882e-06
1.42287e-05
2.01622e-05
2.69511e-05
3.4311e-05
4.20178e-05
5.0002e-05
5.80177e-05
6.59844e-05
7.37475e-05
8.12601e-05
8.84089e-05
9.51514e-05
0.000101375
0.000107029
0.000112081
0.000116459
0.000120157
0.000123132
0.000125312
0.000126723
0.000127318
0.000127055
0.00012598
0.000124034
0.000121204
0.000117532
0.000112954
0.000107494
0.000101177
9.39674e-05
8.58759e-05
7.69403e-05
6.71382e-05
5.64703e-05
4.49751e-05
3.266e-05
1.94956e-05
5.53652e-06
-9.20214e-06
-2.47451e-05
-4.1035e-05
-5.80571e-05
-7.58166e-05
-9.42999e-05
-0.000113469
-0.000133313
-0.000153824
-0.000174962
-0.000196704
-0.00021906
-0.000241997
-0.000265476
-0.000289488
-0.000314017
-0.000339027
-0.000364506
-0.000390447
-0.000416816
-0.000443569
-0.00047069
-0.000498172
-0.00052599
-0.000554127
-0.00058257
-0.000611294
-0.000640255
-0.000669424
-0.000698796
-0.000728358
-0.00075808
-0.000787944
-0.000817936
-0.000848026
-0.000878178
-0.000908372
-0.000938607
-0.000968867
-0.000999109
-0.00102931
-0.00105945
-0.00108951
-0.00111947
-0.00114929
-0.00117896
-0.00120848
-0.00123781
-0.00126691
-0.00129578
-0.00132441
-0.00135276
-0.0013808
-0.00140852
-0.0014359
-0.00146293
-0.00148958
-0.00151581
-0.00154163
-0.00156701
-0.00159192
-0.00161633
-0.00164023
-0.0016636
-0.00168642
-0.00170867
-0.00173031
-0.00175135
-0.00177177
-0.00179155
-0.00181067
-0.00182909
-0.00184681
-0.00186382
-0.0018801
-0.00189562
-0.00191038
-0.00192436
-0.00193756
-0.00194995
-0.00196152
-0.00197226
-0.00198217
-0.00199124
-0.00199944
-0.00200678
-0.00201324
-0.00201885
-0.0020236
-0.00202748
-0.00203049
-0.00203265
-0.00203398
-0.00203449
-0.00203418
-0.00203307
-0.00203118
-0.00202855
-0.00202521
-0.00202119
-0.00201654
-0.00201132
-0.00200559
-0.00199942
-0.00199288
-0.00198605
-0.00197902
-0.00197191
-0.00196483
-0.00195791
-0.00195128
-0.00194509
-0.00193951
-0.00193469
-0.0019308
-0.00192799
-0.00192653
-0.00192659
1.39346e-06
2.48654e-06
4.66069e-06
7.97136e-06
1.23722e-05
1.77978e-05
2.40181e-05
3.07781e-05
3.78539e-05
4.51465e-05
5.25486e-05
5.98733e-05
6.70592e-05
7.397e-05
8.05504e-05
8.67393e-05
9.24467e-05
9.76569e-05
0.000102244
0.000106207
0.000109529
0.000112118
0.000113988
0.000115105
0.000115407
0.000114939
0.000113636
0.000111487
0.000108533
0.000104715
0.000100028
9.45064e-05
8.81245e-05
8.08766e-05
7.27973e-05
6.38761e-05
5.40991e-05
4.34971e-05
3.20932e-05
1.98483e-05
6.81435e-06
-6.99399e-06
-2.15943e-05
-3.69594e-05
-5.30549e-05
-6.98848e-05
-8.74368e-05
-0.00010568
-0.000124606
-0.000144212
-0.000164463
-0.000185331
-0.000206806
-0.000228871
-0.000251492
-0.000274657
-0.000298364
-0.000322569
-0.000347242
-0.000372382
-0.000397969
-0.000423973
-0.000450374
-0.000477158
-0.000504288
-0.000531733
-0.000559487
-0.000587541
-0.000615867
-0.000644438
-0.000673234
-0.000702235
-0.000731409
-0.000760727
-0.000790188
-0.00081978
-0.000849467
-0.000879221
-0.000909029
-0.000938873
-0.000968727
-0.000998562
-0.00102836
-0.00105811
-0.00108778
-0.00111733
-0.00114676
-0.00117605
-0.00120518
-0.00123412
-0.00126283
-0.00129132
-0.00131957
-0.00134754
-0.0013752
-0.00140255
-0.00142957
-0.00145624
-0.00148252
-0.0015084
-0.00153387
-0.00155892
-0.00158349
-0.00160757
-0.00163115
-0.00165421
-0.00167673
-0.00169868
-0.00172004
-0.00174081
-0.00176097
-0.00178049
-0.00179936
-0.00181756
-0.00183507
-0.00185189
-0.00186797
-0.00188332
-0.00189792
-0.00191177
-0.00192485
-0.00193714
-0.00194863
-0.00195932
-0.0019692
-0.00197825
-0.00198646
-0.00199382
-0.00200034
-0.00200603
-0.00201088
-0.00201489
-0.00201806
-0.00202041
-0.00202195
-0.0020227
-0.00202265
-0.00202183
-0.00202027
-0.002018
-0.00201504
-0.00201143
-0.00200721
-0.00200245
-0.0019972
-0.00199153
-0.0019855
-0.00197919
-0.00197268
-0.00196608
-0.00195949
-0.00195303
-0.0019468
-0.00194095
-0.00193561
-0.00193093
-0.00192703
-0.00192406
-0.00192222
-0.00192162
-3.16812e-06
-1.227e-06
1.44647e-06
4.93268e-06
9.30548e-06
1.45097e-05
2.03735e-05
2.66931e-05
3.33473e-05
4.01549e-05
4.70069e-05
5.38574e-05
6.05218e-05
6.69449e-05
7.30585e-05
7.87391e-05
8.40165e-05
8.87709e-05
9.29667e-05
9.65699e-05
9.94971e-05
0.000101769
0.000103338
0.000104151
0.000104231
0.000103531
0.000102011
9.97075e-05
9.65934e-05
9.26367e-05
8.78707e-05
8.22727e-05
7.58234e-05
6.85533e-05
6.04713e-05
5.15436e-05
4.18066e-05
3.12722e-05
1.9916e-05
7.76319e-06
-5.15053e-06
-1.885e-05
-3.33147e-05
-4.85019e-05
-6.44387e-05
-8.10934e-05
-9.84427e-05
-0.000116475
-0.000135186
-0.000154553
-0.000174549
-0.000195165
-0.000216385
-0.000238176
-0.000260513
-0.000283391
-0.000306795
-0.000330689
-0.00035506
-0.000379892
-0.000405146
-0.000430803
-0.000456862
-0.0004833
-0.000510083
-0.000537188
-0.000564603
-0.000592299
-0.000620249
-0.000648442
-0.000676869
-0.0007055
-0.000734301
-0.000763252
-0.000792345
-0.000821555
-0.000850851
-0.000880223
-0.000909661
-0.00093913
-0.000968599
-0.000998054
-0.00102748
-0.00105685
-0.00108614
-0.00111531
-0.00114437
-0.00117329
-0.00120204
-0.0012306
-0.00125896
-0.00128709
-0.00131497
-0.00134258
-0.00136988
-0.00139689
-0.00142356
-0.00144988
-0.00147582
-0.00150137
-0.00152652
-0.00155124
-0.00157549
-0.00159926
-0.00162254
-0.00164531
-0.00166754
-0.00168921
-0.00171031
-0.00173083
-0.00175074
-0.00177003
-0.00178867
-0.00180666
-0.00182398
-0.00184061
-0.00185652
-0.00187171
-0.00188618
-0.00189991
-0.00191289
-0.00192508
-0.0019365
-0.00194714
-0.00195699
-0.00196603
-0.00197425
-0.00198165
-0.00198823
-0.001994
-0.00199894
-0.00200307
-0.00200639
-0.00200893
-0.00201067
-0.00201164
-0.00201184
-0.00201129
-0.00201003
-0.00200808
-0.00200547
-0.00200223
-0.0019984
-0.00199404
-0.00198922
-0.00198397
-0.00197837
-0.0019725
-0.00196642
-0.00196023
-0.00195402
-0.00194789
-0.00194194
-0.0019363
-0.00193108
-0.00192639
-0.00192235
-0.00191909
-0.00191671
-0.00191524
-9.26716e-06
-6.41598e-06
-3.08045e-06
7.3567e-07
5.20854e-06
1.03636e-05
1.60834e-05
2.21732e-05
2.85282e-05
3.49928e-05
4.14879e-05
4.78939e-05
5.41741e-05
6.02028e-05
6.589e-05
7.12032e-05
7.60559e-05
8.04332e-05
8.42804e-05
8.75278e-05
9.01604e-05
9.21372e-05
9.34009e-05
9.39707e-05
9.3819e-05
9.28939e-05
9.1206e-05
8.87412e-05
8.5465e-05
8.14022e-05
7.65433e-05
7.08541e-05
6.43589e-05
5.70734e-05
4.89523e-05
4.00382e-05
3.03366e-05
1.98298e-05
8.53357e-06
-3.52417e-06
-1.63543e-05
-2.99483e-05
-4.42729e-05
-5.9322e-05
-7.51054e-05
-9.15894e-05
-0.000108757
-0.000126605
-0.00014512
-0.000164267
-0.000184034
-0.000204418
-0.000225389
-0.000246922
-0.000269006
-0.000291618
-0.000314732
-0.000338335
-0.000362418
-0.000386953
-0.000411904
-0.00043726
-0.000463004
-0.000489108
-0.000515552
-0.000542328
-0.000569416
-0.000596778
-0.000624389
-0.000652244
-0.000680321
-0.000708589
-0.000737031
-0.000765638
-0.000794383
-0.000823235
-0.000852172
-0.00088119
-0.000910271
-0.000939377
-0.000968485
-0.000997586
-0.00102666
-0.00105567
-0.00108459
-0.00111342
-0.00114213
-0.0011707
-0.00119909
-0.0012273
-0.00125531
-0.00128311
-0.00131064
-0.00133791
-0.00136489
-0.00139156
-0.00141791
-0.0014439
-0.00146952
-0.00149477
-0.00151961
-0.00154402
-0.00156797
-0.00159146
-0.00161446
-0.00163696
-0.00165891
-0.00168032
-0.00170118
-0.00172146
-0.00174115
-0.00176022
-0.00177865
-0.00179646
-0.0018136
-0.00183005
-0.00184581
-0.00186087
-0.00187522
-0.00188885
-0.00190172
-0.00191384
-0.00192521
-0.00193581
-0.00194564
-0.00195466
-0.00196289
-0.00197033
-0.00197697
-0.00198282
-0.00198786
-0.0019921
-0.00199557
-0.00199826
-0.0020002
-0.00200137
-0.0020018
-0.00200151
-0.00200052
-0.00199886
-0.00199655
-0.00199362
-0.00199014
-0.00198614
-0.00198167
-0.00197679
-0.00197155
-0.00196602
-0.00196029
-0.00195441
-0.00194848
-0.00194258
-0.0019368
-0.00193125
-0.00192603
-0.00192122
-0.00191693
-0.00191326
-0.00191021
-0.00190773
-1.64266e-05
-1.26364e-05
-8.61466e-06
-4.38916e-06
3.93804e-07
5.6648e-06
1.13438e-05
1.73177e-05
2.35062e-05
2.97379e-05
3.59713e-05
4.20792e-05
4.80192e-05
5.36995e-05
5.90808e-05
6.40533e-05
6.85817e-05
7.26449e-05
7.61608e-05
7.91114e-05
8.14623e-05
8.3163e-05
8.41874e-05
8.45288e-05
8.41461e-05
8.30355e-05
8.11872e-05
7.85511e-05
7.51473e-05
7.09849e-05
6.60076e-05
6.02548e-05
5.3721e-05
4.63778e-05
3.82454e-05
2.93445e-05
1.96488e-05
9.17214e-06
-2.0592e-06
-1.40529e-05
-2.68066e-05
-4.02952e-05
-5.45027e-05
-6.94402e-05
-8.50775e-05
-0.000101404
-0.000118408
-0.000136083
-0.000154409
-0.00017336
-0.000192926
-0.000213093
-0.00023383
-0.000255127
-0.000276977
-0.000299339
-0.000322193
-0.000345535
-0.000369341
-0.000393584
-0.000418249
-0.000443324
-0.000468777
-0.000494578
-0.000520718
-0.000547184
-0.000573949
-0.000600987
-0.000628284
-0.000655824
-0.000683574
-0.000711508
-0.00073962
-0.000767896
-0.000796303
-0.000824817
-0.000853427
-0.000882115
-0.000910856
-0.000939618
-0.00096839
-0.00099716
-0.00102589
-0.00105456
-0.00108315
-0.00111164
-0.00114002
-0.00116825
-0.00119632
-0.0012242
-0.0012519
-0.00127936
-0.00130658
-0.00133352
-0.0013602
-0.00138656
-0.0014126
-0.00143829
-0.00146362
-0.00148858
-0.00151313
-0.00153725
-0.00156092
-0.00158415
-0.00160689
-0.00162913
-0.00165084
-0.00167201
-0.00169264
-0.0017127
-0.00173217
-0.00175104
-0.0017693
-0.00178693
-0.00180391
-0.00182021
-0.00183584
-0.00185078
-0.00186502
-0.00187855
-0.00189134
-0.00190339
-0.00191472
-0.00192529
-0.00193509
-0.00194411
-0.00195236
-0.00195983
-0.00196653
-0.00197245
-0.00197758
-0.00198194
-0.00198555
-0.00198839
-0.00199049
-0.00199185
-0.00199249
-0.00199243
-0.00199168
-0.00199028
-0.00198824
-0.00198561
-0.00198242
-0.00197872
-0.00197455
-0.00196996
-0.00196501
-0.00195977
-0.00195429
-0.00194865
-0.00194291
-0.00193714
-0.00193144
-0.00192589
-0.00192056
-0.00191553
-0.0019109
-0.00190674
-0.00190295
-0.00189937
-2.44758e-05
-1.96332e-05
-1.49093e-05
-1.01505e-05
-5.04976e-06
4.60423e-07
6.24355e-06
1.22187e-05
1.83177e-05
2.44232e-05
3.04708e-05
3.63908e-05
4.20766e-05
4.75146e-05
5.26066e-05
5.73131e-05
6.15826e-05
6.53515e-05
6.85964e-05
7.12958e-05
7.33843e-05
7.48489e-05
7.56693e-05
7.57808e-05
7.52039e-05
7.39292e-05
7.18993e-05
6.91227e-05
6.56167e-05
6.13197e-05
5.62619e-05
5.0448e-05
4.38472e-05
3.64677e-05
2.83293e-05
1.94137e-05
9.7251e-06
-7.14912e-07
-1.19029e-05
-2.38478e-05
-3.65225e-05
-4.99185e-05
-6.40342e-05
-7.88574e-05
-9.43702e-05
-0.000110564
-0.000127424
-0.000144935
-0.000163082
-0.000181856
-0.00020124
-0.000221204
-0.000241732
-0.000262818
-0.000284438
-0.000306564
-0.000329185
-0.000352289
-0.000375838
-0.000399815
-0.000424215
-0.000449016
-0.000474186
-0.000499709
-0.000525574
-0.000551753
-0.000578216
-0.000604954
-0.000631954
-0.000659187
-0.000686627
-0.000714258
-0.000742068
-0.000770031
-0.000798117
-0.000826317
-0.000854619
-0.000882994
-0.000911412
-0.000939856
-0.000968316
-0.000996769
-0.00102518
-0.00105353
-0.0010818
-0.00110999
-0.00113805
-0.00116596
-0.00119372
-0.00122131
-0.0012487
-0.00127585
-0.00130276
-0.00132942
-0.0013558
-0.00138188
-0.00140762
-0.00143303
-0.00145809
-0.00148278
-0.00150706
-0.00153092
-0.00155434
-0.00157732
-0.00159981
-0.00162181
-0.00164329
-0.00166425
-0.00168467
-0.00170453
-0.0017238
-0.00174249
-0.00176059
-0.00177806
-0.00179489
-0.00181106
-0.00182656
-0.0018414
-0.00185555
-0.00186898
-0.0018817
-0.00189371
-0.00190499
-0.00191553
-0.00192532
-0.00193434
-0.00194262
-0.00195013
-0.00195688
-0.00196286
-0.00196808
-0.00197256
-0.00197629
-0.00197928
-0.00198153
-0.00198306
-0.00198389
-0.00198403
-0.0019835
-0.00198233
-0.00198053
-0.00197814
-0.00197521
-0.00197176
-0.00196784
-0.00196349
-0.00195878
-0.00195375
-0.00194847
-0.00194298
-0.00193735
-0.00193164
-0.00192594
-0.00192029
-0.00191478
-0.00190946
-0.00190441
-0.00189971
-0.00189512
-0.00189041
-3.31613e-05
-2.7256e-05
-2.17332e-05
-1.64311e-05
-1.0876e-05
-5.0839e-06
8.7083e-07
6.95696e-06
1.30518e-05
1.91268e-05
2.50775e-05
3.08466e-05
3.63807e-05
4.16144e-05
4.64867e-05
5.09768e-05
5.50176e-05
5.85663e-05
6.15953e-05
6.40515e-05
6.59178e-05
6.71866e-05
6.77929e-05
6.77188e-05
6.6986e-05
6.55245e-05
6.3353e-05
6.04599e-05
5.68155e-05
5.24209e-05
4.72915e-05
4.13962e-05
3.47374e-05
2.73306e-05
1.9165e-05
1.02338e-05
5.58715e-07
-9.8592e-06
-2.10203e-05
-3.2914e-05
-4.55247e-05
-5.88476e-05
-7.28839e-05
-8.75981e-05
-0.000103
-0.000119076
-0.000135805
-0.000153172
-0.000171162
-0.000189774
-0.00020898
-0.00022876
-0.000249106
-0.000269995
-0.000291401
-0.000313313
-0.000335718
-0.000358591
-0.000381906
-0.000405649
-0.000429807
-0.000454347
-0.000479254
-0.000504518
-0.00053012
-0.000556026
-0.000582216
-0.000608683
-0.000635402
-0.000662343
-0.000689493
-0.000716843
-0.000744367
-0.000772036
-0.000799828
-0.000827739
-0.000855748
-0.000883823
-0.000911941
-0.000940094
-0.00096826
-0.000996411
-0.00102452
-0.00105257
-0.00108056
-0.00110845
-0.00113621
-0.00116383
-0.00119131
-0.00121861
-0.0012457
-0.00127257
-0.00129921
-0.0013256
-0.0013517
-0.0013775
-0.00140298
-0.00142813
-0.00145294
-0.00147737
-0.00150139
-0.00152501
-0.00154821
-0.00157096
-0.00159322
-0.001615
-0.00163628
-0.00165704
-0.00167726
-0.00169693
-0.00171603
-0.00173456
-0.00175251
-0.00176983
-0.00178652
-0.00180258
-0.00181798
-0.00183272
-0.00184678
-0.00186014
-0.0018728
-0.00188476
-0.00189601
-0.00190652
-0.0019163
-0.00192534
-0.00193364
-0.00194119
-0.00194799
-0.00195404
-0.00195935
-0.00196393
-0.00196777
-0.00197089
-0.00197328
-0.00197497
-0.00197598
-0.0019763
-0.00197597
-0.00197499
-0.0019734
-0.00197123
-0.00196851
-0.00196527
-0.00196155
-0.0019574
-0.00195286
-0.00194799
-0.00194284
-0.00193744
-0.00193185
-0.00192614
-0.00192036
-0.00191457
-0.00190881
-0.00190313
-0.00189761
-0.00189232
-0.00188692
-0.00188107
-4.21685e-05
-3.51984e-05
-2.88837e-05
-2.29348e-05
-1.69176e-05
-1.07834e-05
-4.59453e-06
1.63098e-06
7.80818e-06
1.388e-05
1.9804e-05
2.55045e-05
3.09379e-05
3.603e-05
4.07692e-05
4.50766e-05
4.89222e-05
5.22962e-05
5.5124e-05
5.73845e-05
5.90792e-05
6.01449e-05
6.05762e-05
6.03554e-05
5.94394e-05
5.78359e-05
5.55369e-05
5.25129e-05
4.87547e-05
4.42796e-05
3.90594e-05
3.30902e-05
2.63894e-05
1.89414e-05
1.0741e-05
1.80181e-06
-7.86924e-06
-1.82798e-05
-2.94168e-05
-4.12618e-05
-5.38243e-05
-6.70922e-05
-8.10491e-05
-9.56793e-05
-0.000110985
-0.000126952
-0.00014356
-0.000160798
-0.000178656
-0.000197118
-0.000216161
-0.000235777
-0.000255956
-0.000276661
-0.000297878
-0.0003196
-0.0003418
-0.000364455
-0.000387554
-0.000411082
-0.000435011
-0.000459317
-0.00048399
-0.000509015
-0.000534363
-0.000560013
-0.000585953
-0.000612168
-0.000638623
-0.000665297
-0.000692185
-0.00071927
-0.000746519
-0.000773913
-0.000801439
-0.00082908
-0.00085681
-0.000884603
-0.000912447
-0.000940329
-0.000968218
-0.000996085
-0.00102392
-0.0010517
-0.00107941
-0.00110702
-0.00113451
-0.00116186
-0.00118907
-0.0012161
-0.00124292
-0.00126953
-0.00129591
-0.00132204
-0.00134788
-0.00137343
-0.00139867
-0.00142358
-0.00144815
-0.00147234
-0.00149614
-0.00151954
-0.00154253
-0.00156506
-0.00158711
-0.00160869
-0.00162979
-0.00165036
-0.00167041
-0.00168991
-0.00170886
-0.00172725
-0.00174505
-0.00176224
-0.00177882
-0.00179477
-0.00181008
-0.00182473
-0.0018387
-0.001852
-0.00186462
-0.00187655
-0.00188776
-0.00189826
-0.00190804
-0.00191709
-0.00192542
-0.00193301
-0.00193986
-0.00194598
-0.00195137
-0.00195604
-0.00195999
-0.00196322
-0.00196575
-0.00196759
-0.00196874
-0.00196923
-0.00196906
-0.00196826
-0.00196685
-0.00196486
-0.00196232
-0.00195925
-0.00195569
-0.00195169
-0.00194729
-0.00194253
-0.00193744
-0.00193208
-0.00192648
-0.00192071
-0.0019148
-0.0019088
-0.00190274
-0.00189667
-0.00189065
-0.00188475
-0.00187852
-0.00187154
-5.13355e-05
-4.33276e-05
-3.6189e-05
-2.96437e-05
-2.30881e-05
-1.65562e-05
-1.00888e-05
-3.67403e-06
2.64776e-06
8.78941e-06
1.47302e-05
2.0414e-05
2.57773e-05
3.08074e-05
3.54178e-05
3.95936e-05
4.33214e-05
4.65224e-05
4.9195e-05
5.13175e-05
5.28263e-05
5.37382e-05
5.40239e-05
5.36401e-05
5.25847e-05
5.08555e-05
4.84227e-05
4.52797e-05
4.14282e-05
3.68613e-05
3.15538e-05
2.55268e-05
1.87721e-05
1.12751e-05
3.04877e-06
-5.90389e-06
-1.55826e-05
-2.59907e-05
-3.71057e-05
-4.89207e-05
-6.14418e-05
-7.46591e-05
-8.85479e-05
-0.000103112
-0.000118336
-0.000134204
-0.000150707
-0.000167833
-0.000185569
-0.000203895
-0.000222799
-0.000242268
-0.000262285
-0.000282824
-0.000303876
-0.000325424
-0.000347435
-0.000369898
-0.000392802
-0.000416124
-0.000439837
-0.000463931
-0.000488392
-0.000513193
-0.000538308
-0.000563727
-0.000589437
-0.000615409
-0.000641618
-0.000668052
-0.000694701
-0.000721536
-0.000748529
-0.000775672
-0.000802951
-0.000830338
-0.000857807
-0.000885341
-0.000912933
-0.000940558
-0.000968185
-0.000995791
-0.00102337
-0.0010509
-0.00107835
-0.0011057
-0.00113294
-0.00116004
-0.001187
-0.00121377
-0.00124035
-0.00126672
-0.00129286
-0.00131874
-0.00134435
-0.00136967
-0.00139468
-0.00141938
-0.00144372
-0.0014677
-0.0014913
-0.0015145
-0.00153728
-0.00155961
-0.00158149
-0.00160289
-0.00162382
-0.00164423
-0.00166411
-0.00168346
-0.00170228
-0.00172053
-0.00173821
-0.00175528
-0.00177175
-0.00178761
-0.00180284
-0.00181741
-0.00183132
-0.00184457
-0.00185715
-0.00186904
-0.00188024
-0.00189073
-0.00190051
-0.00190959
-0.00191794
-0.00192557
-0.00193247
-0.00193866
-0.00194413
-0.00194889
-0.00195294
-0.00195628
-0.00195893
-0.00196089
-0.00196219
-0.00196282
-0.0019628
-0.00196215
-0.00196089
-0.00195905
-0.00195665
-0.00195372
-0.00195029
-0.0019464
-0.00194209
-0.00193739
-0.00193233
-0.00192696
-0.00192131
-0.00191542
-0.00190933
-0.00190308
-0.00189669
-0.0018902
-0.00188366
-0.00187712
-0.00187007
-0.001862
-6.0554e-05
-5.14377e-05
-4.355e-05
-3.63577e-05
-2.92632e-05
-2.23018e-05
-1.5495e-05
-8.83238e-06
-2.35925e-06
3.91256e-06
9.92192e-06
1.56053e-05
2.09661e-05
2.59379e-05
3.04813e-05
3.45803e-05
3.81842e-05
4.12725e-05
4.38336e-05
4.58035e-05
4.7185e-05
4.79632e-05
4.81058e-05
4.75881e-05
4.64136e-05
4.45562e-05
4.20043e-05
3.87612e-05
3.48172e-05
3.01543e-05
2.47763e-05
1.86906e-05
1.18723e-05
4.33132e-06
-3.92169e-06
-1.29012e-05
-2.25938e-05
-3.29983e-05
-4.41011e-05
-5.59027e-05
-6.83929e-05
-8.15604e-05
-9.54011e-05
-0.000109906
-0.000125058
-0.000140844
-0.000157256
-0.000174284
-0.000191908
-0.000210115
-0.000228901
-0.000248237
-0.000268106
-0.0002885
-0.000309399
-0.000330782
-0.000352625
-0.000374919
-0.000397648
-0.000420778
-0.000444297
-0.0004682
-0.000492462
-0.000517053
-0.00054196
-0.000567175
-0.000592668
-0.000618412
-0.000644398
-0.000670615
-0.000697038
-0.00072364
-0.000750401
-0.000777315
-0.000804362
-0.000831509
-0.000858738
-0.000886042
-0.0009134
-0.000940783
-0.000968166
-0.000995538
-0.00102289
-0.00105018
-0.00107739
-0.0011045
-0.00113151
-0.00115838
-0.0011851
-0.00121164
-0.00123799
-0.00126414
-0.00129005
-0.00131571
-0.0013411
-0.00136622
-0.00139103
-0.00141552
-0.00143966
-0.00146344
-0.00148685
-0.00150987
-0.00153247
-0.00155463
-0.00157634
-0.00159759
-0.00161836
-0.00163862
-0.00165837
-0.00167759
-0.00169628
-0.00171442
-0.00173198
-0.00174895
-0.00176533
-0.00178111
-0.00179625
-0.00181076
-0.00182462
-0.00183783
-0.00185038
-0.00186225
-0.00187343
-0.00188392
-0.00189372
-0.00190282
-0.0019112
-0.00191887
-0.00192583
-0.00193208
-0.00193763
-0.00194247
-0.00194661
-0.00195005
-0.00195281
-0.0019549
-0.00195631
-0.00195706
-0.00195717
-0.00195665
-0.00195552
-0.00195381
-0.00195152
-0.0019487
-0.00194536
-0.00194155
-0.00193729
-0.00193261
-0.00192754
-0.00192212
-0.00191637
-0.00191034
-0.00190404
-0.0018975
-0.00189076
-0.00188382
-0.00187675
-0.00186958
-0.00186172
-0.00185259
-6.95758e-05
-5.9453e-05
-5.07527e-05
-4.29742e-05
-3.53612e-05
-2.79158e-05
-2.07427e-05
-1.38011e-05
-7.10884e-06
-6.97835e-07
5.39922e-06
1.11646e-05
1.65277e-05
2.14802e-05
2.60026e-05
3.00215e-05
3.3553e-05
3.65551e-05
3.90069e-05
4.08737e-05
4.21479e-05
4.28028e-05
4.28196e-05
4.2195e-05
4.09054e-05
3.8931e-05
3.62812e-05
3.29401e-05
2.88994e-05
2.41543e-05
1.87107e-05
1.25544e-05
5.67789e-06
-1.90134e-06
-1.01942e-05
-1.92041e-05
-2.8911e-05
-3.9318e-05
-5.04232e-05
-6.22132e-05
-7.46807e-05
-8.78136e-05
-0.00010162
-0.00011607
-0.00013116
-0.000146882
-0.000163219
-0.000180159
-0.000197685
-0.000215793
-0.00023447
-0.000253686
-0.000273433
-0.0002937
-0.00031446
-0.00033569
-0.000357385
-0.000379527
-0.000402088
-0.000425048
-0.000448402
-0.000472129
-0.000496203
-0.000520606
-0.000545328
-0.000570352
-0.000595643
-0.000621185
-0.000646973
-0.000672988
-0.000699198
-0.000725587
-0.000752143
-0.000778847
-0.000805674
-0.000832599
-0.000859613
-0.000886705
-0.000913843
-0.000941001
-0.000968166
-0.000995326
-0.00102246
-0.00104953
-0.00107652
-0.00110342
-0.00113021
-0.00115687
-0.00118337
-0.00120969
-0.00123584
-0.00126178
-0.00128749
-0.00131295
-0.00133815
-0.00136307
-0.00138769
-0.00141199
-0.00143595
-0.00145956
-0.00148281
-0.00150566
-0.00152809
-0.0015501
-0.00157167
-0.00159278
-0.00161341
-0.00163354
-0.00165317
-0.00167228
-0.00169086
-0.00170889
-0.00172635
-0.00174324
-0.00175954
-0.00177524
-0.00179032
-0.00180477
-0.00181859
-0.00183177
-0.0018443
-0.00185615
-0.00186733
-0.00187783
-0.00188765
-0.00189677
-0.00190519
-0.00191291
-0.00191992
-0.00192624
-0.00193185
-0.00193677
-0.00194099
-0.00194453
-0.00194739
-0.00194959
-0.0019511
-0.00195197
-0.00195218
-0.00195177
-0.00195075
-0.00194914
-0.00194694
-0.00194419
-0.00194092
-0.00193716
-0.00193292
-0.00192823
-0.00192311
-0.00191761
-0.00191174
-0.00190553
-0.00189899
-0.00189215
-0.00188503
-0.00187763
-0.00187002
-0.00186223
-0.00185357
-0.00184343
-7.83676e-05
-6.7226e-05
-5.77702e-05
-4.93564e-05
-4.12155e-05
-3.33182e-05
-2.57632e-05
-1.84981e-05
-1.15678e-05
-4.98853e-06
1.2541e-06
7.07696e-06
1.24934e-05
1.74704e-05
2.19596e-05
2.59595e-05
2.94389e-05
3.23724e-05
3.47396e-05
3.65289e-05
3.77008e-05
3.82539e-05
3.81725e-05
3.74449e-05
3.60465e-05
3.39784e-05
3.12373e-05
2.78013e-05
2.36735e-05
1.88578e-05
1.3339e-05
7.1116e-06
1.86191e-07
-7.44217e-06
-1.57821e-05
-2.48214e-05
-3.455e-05
-4.4969e-05
-5.60827e-05
-6.78646e-05
-8.0317e-05
-9.34366e-05
-0.000107209
-0.000121618
-0.000136661
-0.000152328
-0.000168599
-0.000185465
-0.000202916
-0.000220937
-0.000239514
-0.000258627
-0.00027827
-0.000298423
-0.000319057
-0.000340161
-0.000361726
-0.000383725
-0.000406135
-0.000428948
-0.000452152
-0.000475718
-0.000499624
-0.000523864
-0.00054842
-0.000573262
-0.000598371
-0.000623735
-0.000649343
-0.000675168
-0.000701183
-0.000727383
-0.000753753
-0.000780261
-0.000806887
-0.000833616
-0.000860437
-0.00088733
-0.000914262
-0.000941217
-0.000968188
-0.000995152
-0.00102208
-0.00104894
-0.00107574
-0.00110245
-0.00112904
-0.0011555
-0.0011818
-0.00120794
-0.0012339
-0.00125965
-0.00128517
-0.00131045
-0.00133548
-0.00136023
-0.00138467
-0.0014088
-0.00143261
-0.00145606
-0.00147916
-0.00150185
-0.00152415
-0.00154602
-0.00156747
-0.00158845
-0.00160896
-0.00162898
-0.00164851
-0.00166752
-0.001686
-0.00170394
-0.00172132
-0.00173813
-0.00175437
-0.00177001
-0.00178503
-0.00179944
-0.00181323
-0.00182639
-0.00183889
-0.00185074
-0.00186193
-0.00187245
-0.00188229
-0.00189144
-0.00189989
-0.00190766
-0.00191473
-0.00192111
-0.00192679
-0.00193178
-0.00193609
-0.00193972
-0.00194267
-0.00194495
-0.00194657
-0.00194752
-0.00194784
-0.00194752
-0.00194659
-0.00194505
-0.00194292
-0.00194023
-0.001937
-0.00193325
-0.001929
-0.00192427
-0.00191909
-0.00191347
-0.00190745
-0.00190104
-0.00189424
-0.00188708
-0.00187958
-0.00187172
-0.00186357
-0.00185517
-0.00184574
-0.00183462
-8.67432e-05
-7.46587e-05
-6.44455e-05
-5.54226e-05