/*--------------------------------*- C++ -*----------------------------------*\
  =========                 |
  \\      /  F ield         | OpenFOAM: The Open Source CFD Toolbox
   \\    /   O peration     | Website:  https://openfoam.org
    \\  /    A nd           | Version:  7
     \\/     M anipulation  |
\*---------------------------------------------------------------------------*/
FoamFile
{
    version     2.0;
    format      ascii;
    class       volVectorField;
    location    "0.225";
    object      U;
}
// * * * * * * * * * * * * * * * * * * * * * * * * * * * * * * * * * * * * * //

dimensions      [0 1 -1 0 0 0 0];

internalField   nonuniform List<vector> 
51200
(
(5.11051e-09 -5.17165e-10 0)
(-3.68067e-08 5.91092e-08 0)
(-1.69014e-07 8.88078e-08 0)
(-3.09166e-07 7.39184e-08 0)
(-4.09039e-07 4.72932e-08 0)
(-4.4856e-07 2.18503e-08 0)
(-4.35212e-07 1.49816e-09 0)
(-3.74215e-07 -1.54539e-08 0)
(-2.71152e-07 -2.93019e-08 0)
(-1.29447e-07 -4.21552e-08 0)
(4.77543e-08 -5.30882e-08 0)
(2.58406e-07 -6.35452e-08 0)
(4.99985e-07 -7.24073e-08 0)
(7.70384e-07 -8.13287e-08 0)
(1.06799e-06 -8.90447e-08 0)
(1.39111e-06 -9.62862e-08 0)
(1.73775e-06 -1.0313e-07 0)
(2.10673e-06 -1.09155e-07 0)
(2.49571e-06 -1.14748e-07 0)
(2.90332e-06 -1.19856e-07 0)
(3.32837e-06 -1.24599e-07 0)
(3.7686e-06 -1.28918e-07 0)
(4.22327e-06 -1.32714e-07 0)
(4.69067e-06 -1.36033e-07 0)
(5.16892e-06 -1.38886e-07 0)
(5.65741e-06 -1.41515e-07 0)
(6.15414e-06 -1.4367e-07 0)
(6.65828e-06 -1.45598e-07 0)
(7.16872e-06 -1.47126e-07 0)
(7.68391e-06 -1.48032e-07 0)
(8.20283e-06 -1.48865e-07 0)
(8.72441e-06 -1.49356e-07 0)
(9.24765e-06 -1.49466e-07 0)
(9.77135e-06 -1.49622e-07 0)
(1.02948e-05 -1.49246e-07 0)
(1.08173e-05 -1.486e-07 0)
(1.13374e-05 -1.47952e-07 0)
(1.18547e-05 -1.47057e-07 0)
(1.23683e-05 -1.45721e-07 0)
(1.28773e-05 -1.44379e-07 0)
(1.33811e-05 -1.42871e-07 0)
(1.38793e-05 -1.40951e-07 0)
(1.43708e-05 -1.39065e-07 0)
(1.4855e-05 -1.37194e-07 0)
(1.53317e-05 -1.34774e-07 0)
(1.58001e-05 -1.32177e-07 0)
(1.62594e-05 -1.29685e-07 0)
(1.67098e-05 -1.26941e-07 0)
(1.71505e-05 -1.23864e-07 0)
(1.75809e-05 -1.20888e-07 0)
(1.80006e-05 -1.17724e-07 0)
(1.84094e-05 -1.14082e-07 0)
(1.88068e-05 -1.10617e-07 0)
(1.91924e-05 -1.07482e-07 0)
(1.95662e-05 -1.04153e-07 0)
(1.99277e-05 -1.00644e-07 0)
(2.02765e-05 -9.72594e-08 0)
(2.06124e-05 -9.37405e-08 0)
(2.09354e-05 -8.99021e-08 0)
(2.12451e-05 -8.61032e-08 0)
(2.15412e-05 -8.24139e-08 0)
(2.18237e-05 -7.83754e-08 0)
(2.20924e-05 -7.39738e-08 0)
(2.23469e-05 -6.96616e-08 0)
(2.25871e-05 -6.56041e-08 0)
(2.28133e-05 -6.16797e-08 0)
(2.30252e-05 -5.78976e-08 0)
(2.32223e-05 -5.41857e-08 0)
(2.34047e-05 -5.01877e-08 0)
(2.35723e-05 -4.57184e-08 0)
(2.3725e-05 -4.10422e-08 0)
(2.38626e-05 -3.65402e-08 0)
(2.39852e-05 -3.229e-08 0)
(2.40929e-05 -2.81581e-08 0)
(2.41855e-05 -2.40574e-08 0)
(2.42629e-05 -1.9929e-08 0)
(2.43249e-05 -1.56503e-08 0)
(2.43718e-05 -1.1179e-08 0)
(2.44035e-05 -6.71906e-09 0)
(2.44199e-05 -2.441e-09 0)
(2.4421e-05 1.75221e-09 0)
(2.44071e-05 6.01703e-09 0)
(2.43779e-05 1.03528e-08 0)
(2.43333e-05 1.46562e-08 0)
(2.42734e-05 1.89319e-08 0)
(2.41985e-05 2.32607e-08 0)
(2.41085e-05 2.75827e-08 0)
(2.40033e-05 3.18314e-08 0)
(2.3883e-05 3.60261e-08 0)
(2.37478e-05 4.02397e-08 0)
(2.35977e-05 4.4483e-08 0)
(2.34327e-05 4.8701e-08 0)
(2.32528e-05 5.28581e-08 0)
(2.30583e-05 5.69965e-08 0)
(2.28493e-05 6.11428e-08 0)
(2.26256e-05 6.52456e-08 0)
(2.23876e-05 6.92665e-08 0)
(2.21354e-05 7.32455e-08 0)
(2.18691e-05 7.72136e-08 0)
(2.15891e-05 8.11332e-08 0)
(2.12952e-05 8.4989e-08 0)
(2.09878e-05 8.88038e-08 0)
(2.0667e-05 9.26072e-08 0)
(2.03331e-05 9.63903e-08 0)
(1.99862e-05 1.00092e-07 0)
(1.96267e-05 1.03652e-07 0)
(1.92548e-05 1.07092e-07 0)
(1.88709e-05 1.10455e-07 0)
(1.84752e-05 1.13755e-07 0)
(1.80681e-05 1.16974e-07 0)
(1.76499e-05 1.20083e-07 0)
(1.72212e-05 1.23064e-07 0)
(1.67823e-05 1.25928e-07 0)
(1.63335e-05 1.2869e-07 0)
(1.58753e-05 1.31356e-07 0)
(1.54082e-05 1.33912e-07 0)
(1.49329e-05 1.36308e-07 0)
(1.44497e-05 1.38504e-07 0)
(1.39593e-05 1.40495e-07 0)
(1.34623e-05 1.4228e-07 0)
(1.29593e-05 1.43888e-07 0)
(1.24511e-05 1.45352e-07 0)
(1.19383e-05 1.46635e-07 0)
(1.14218e-05 1.4768e-07 0)
(1.09022e-05 1.48482e-07 0)
(1.03806e-05 1.49037e-07 0)
(9.85765e-06 1.49318e-07 0)
(9.33441e-06 1.49323e-07 0)
(8.81184e-06 1.49045e-07 0)
(8.29103e-06 1.48433e-07 0)
(7.773e-06 1.47484e-07 0)
(7.25873e-06 1.46237e-07 0)
(6.74939e-06 1.44691e-07 0)
(6.24624e-06 1.42827e-07 0)
(5.75055e-06 1.40625e-07 0)
(5.26368e-06 1.3801e-07 0)
(4.78702e-06 1.34902e-07 0)
(4.32192e-06 1.31306e-07 0)
(3.86983e-06 1.2727e-07 0)
(3.43231e-06 1.22813e-07 0)
(3.01094e-06 1.17928e-07 0)
(2.60737e-06 1.12577e-07 0)
(2.22331e-06 1.06689e-07 0)
(1.86052e-06 1.00198e-07 0)
(1.52076e-06 9.3089e-08 0)
(1.2058e-06 8.53886e-08 0)
(9.17459e-07 7.71009e-08 0)
(6.57576e-07 6.82235e-08 0)
(4.27953e-07 5.877e-08 0)
(2.30332e-07 4.87382e-08 0)
(6.62813e-08 3.8103e-08 0)
(-6.28814e-08 2.69001e-08 0)
(-1.56192e-07 1.52951e-08 0)
(-2.13221e-07 3.52786e-09 0)
(-2.34472e-07 -8.04829e-09 0)
(-2.22019e-07 -1.87305e-08 0)
(-1.80248e-07 -2.72533e-08 0)
(-1.17547e-07 -3.132e-08 0)
(-5.15812e-08 -2.69028e-08 0)
(-1.02972e-08 -1.03866e-08 0)
(-7.58274e-09 2.24733e-08 0)
(-1.0414e-07 1.67879e-07 0)
(-2.83344e-07 2.50163e-07 0)
(-4.83816e-07 2.07735e-07 0)
(-5.97742e-07 1.1376e-07 0)
(-6.06845e-07 1.24982e-08 0)
(-5.02879e-07 -8.13221e-08 0)
(-2.87189e-07 -1.67294e-07 0)
(3.50232e-08 -2.45537e-07 0)
(4.57739e-07 -3.18101e-07 0)
(9.75926e-07 -3.85814e-07 0)
(1.58502e-06 -4.49012e-07 0)
(2.28031e-06 -5.08437e-07 0)
(3.05651e-06 -5.64168e-07 0)
(3.90951e-06 -6.16015e-07 0)
(4.83383e-06 -6.64885e-07 0)
(5.82603e-06 -7.09722e-07 0)
(6.8803e-06 -7.51921e-07 0)
(7.99284e-06 -7.90452e-07 0)
(9.1597e-06 -8.26123e-07 0)
(1.03752e-05 -8.58745e-07 0)
(1.16365e-05 -8.8856e-07 0)
(1.29386e-05 -9.14982e-07 0)
(1.42771e-05 -9.39028e-07 0)
(1.56491e-05 -9.59779e-07 0)
(1.70495e-05 -9.7823e-07 0)
(1.84756e-05 -9.94338e-07 0)
(1.99235e-05 -1.00773e-06 0)
(2.13892e-05 -1.01882e-06 0)
(2.28699e-05 -1.02741e-06 0)
(2.43622e-05 -1.03373e-06 0)
(2.58628e-05 -1.03802e-06 0)
(2.73687e-05 -1.04037e-06 0)
(2.88772e-05 -1.04086e-06 0)
(3.03852e-05 -1.03944e-06 0)
(3.18903e-05 -1.036e-06 0)
(3.33902e-05 -1.03136e-06 0)
(3.4882e-05 -1.02457e-06 0)
(3.63637e-05 -1.01668e-06 0)
(3.78329e-05 -1.00715e-06 0)
(3.92875e-05 -9.96222e-07 0)
(4.07258e-05 -9.8372e-07 0)
(4.21455e-05 -9.70413e-07 0)
(4.35452e-05 -9.55773e-07 0)
(4.49229e-05 -9.39845e-07 0)
(4.6277e-05 -9.23031e-07 0)
(4.76059e-05 -9.05185e-07 0)
(4.89086e-05 -8.86226e-07 0)
(5.01834e-05 -8.66461e-07 0)
(5.14288e-05 -8.46039e-07 0)
(5.26438e-05 -8.24538e-07 0)
(5.38274e-05 -8.01969e-07 0)
(5.4978e-05 -7.78965e-07 0)
(5.6095e-05 -7.5543e-07 0)
(5.71777e-05 -7.31154e-07 0)
(5.8225e-05 -7.06538e-07 0)
(5.92358e-05 -6.81604e-07 0)
(6.02097e-05 -6.55869e-07 0)
(6.11459e-05 -6.2946e-07 0)
(6.20435e-05 -6.02918e-07 0)
(6.29021e-05 -5.76156e-07 0)
(6.37213e-05 -5.48707e-07 0)
(6.45002e-05 -5.20789e-07 0)
(6.52383e-05 -4.92659e-07 0)
(6.59353e-05 -4.64116e-07 0)
(6.65911e-05 -4.35244e-07 0)
(6.7205e-05 -4.06466e-07 0)
(6.77767e-05 -3.77787e-07 0)
(6.83059e-05 -3.48728e-07 0)
(6.87921e-05 -3.19119e-07 0)
(6.92351e-05 -2.89253e-07 0)
(6.96344e-05 -2.59263e-07 0)
(6.99902e-05 -2.29104e-07 0)
(7.03025e-05 -1.98912e-07 0)
(7.05709e-05 -1.68896e-07 0)
(7.07952e-05 -1.38945e-07 0)
(7.09754e-05 -1.08746e-07 0)
(7.11114e-05 -7.82912e-08 0)
(7.12031e-05 -4.78727e-08 0)
(7.12503e-05 -1.7576e-08 0)
(7.12534e-05 1.27721e-08 0)
(7.12122e-05 4.31764e-08 0)
(7.11268e-05 7.35055e-08 0)
(7.0997e-05 1.0375e-07 0)
(7.08231e-05 1.33983e-07 0)
(7.0605e-05 1.64238e-07 0)
(7.0343e-05 1.94386e-07 0)
(7.0037e-05 2.24332e-07 0)
(6.96874e-05 2.54181e-07 0)
(6.92942e-05 2.84039e-07 0)
(6.88577e-05 3.13759e-07 0)
(6.83779e-05 3.43252e-07 0)
(6.78551e-05 3.72588e-07 0)
(6.72898e-05 4.01805e-07 0)
(6.66822e-05 4.30796e-07 0)
(6.60325e-05 4.59469e-07 0)
(6.53411e-05 4.87833e-07 0)
(6.46086e-05 5.15965e-07 0)
(6.38353e-05 5.43844e-07 0)
(6.30217e-05 5.7135e-07 0)
(6.21683e-05 5.98436e-07 0)
(6.12758e-05 6.25169e-07 0)
(6.03447e-05 6.5156e-07 0)
(5.93755e-05 6.77549e-07 0)
(5.83691e-05 7.03023e-07 0)
(5.73261e-05 7.27901e-07 0)
(5.62475e-05 7.5217e-07 0)
(5.51342e-05 7.7581e-07 0)
(5.3987e-05 7.98758e-07 0)
(5.2807e-05 8.21007e-07 0)
(5.15952e-05 8.42569e-07 0)
(5.03528e-05 8.63341e-07 0)
(4.90811e-05 8.83229e-07 0)
(4.77813e-05 9.02204e-07 0)
(4.64546e-05 9.20278e-07 0)
(4.51025e-05 9.37436e-07 0)
(4.37266e-05 9.53576e-07 0)
(4.23285e-05 9.68529e-07 0)
(4.09099e-05 9.82192e-07 0)
(3.94726e-05 9.9454e-07 0)
(3.80186e-05 1.00557e-06 0)
(3.65498e-05 1.01525e-06 0)
(3.50682e-05 1.02349e-06 0)
(3.3576e-05 1.03018e-06 0)
(3.20758e-05 1.03523e-06 0)
(3.05698e-05 1.03853e-06 0)
(2.90607e-05 1.04001e-06 0)
(2.7551e-05 1.03959e-06 0)
(2.60436e-05 1.03721e-06 0)
(2.45415e-05 1.03278e-06 0)
(2.30477e-05 1.02615e-06 0)
(2.15654e-05 1.01724e-06 0)
(2.00978e-05 1.006e-06 0)
(1.86484e-05 9.92371e-07 0)
(1.72207e-05 9.76268e-07 0)
(1.58185e-05 9.57535e-07 0)
(1.44458e-05 9.35952e-07 0)
(1.31065e-05 9.11392e-07 0)
(1.18049e-05 8.83811e-07 0)
(1.05452e-05 8.53169e-07 0)
(9.3316e-06 8.19422e-07 0)
(8.16861e-06 7.82482e-07 0)
(7.06095e-06 7.42204e-07 0)
(6.01338e-06 6.98438e-07 0)
(5.03066e-06 6.51082e-07 0)
(4.11751e-06 6.00131e-07 0)
(3.27865e-06 5.45634e-07 0)
(2.51869e-06 4.87675e-07 0)
(1.84199e-06 4.26425e-07 0)
(1.2526e-06 3.62118e-07 0)
(7.5404e-07 2.95071e-07 0)
(3.48956e-07 2.25846e-07 0)
(3.87898e-08 1.55476e-07 0)
(-1.76729e-07 8.55733e-08 0)
(-3.00479e-07 1.85053e-08 0)
(-3.39278e-07 -4.20014e-08 0)
(-3.05018e-07 -9.00958e-08 0)
(-2.16719e-07 -1.16669e-07 0)
(-1.07459e-07 -1.08324e-07 0)
(-2.63737e-08 -5.14264e-08 0)
(-1.95321e-08 7.1982e-08 0)
(-1.00002e-07 3.09229e-07 0)
(-2.4759e-07 4.32854e-07 0)
(-3.70384e-07 3.40829e-07 0)
(-4.00779e-07 1.41423e-07 0)
(-2.9939e-07 -8.67675e-08 0)
(-4.87471e-08 -3.15491e-07 0)
(3.56652e-07 -5.3456e-07 0)
(9.16891e-07 -7.42909e-07 0)
(1.62759e-06 -9.39921e-07 0)
(2.48423e-06 -1.12739e-06 0)
(3.48087e-06 -1.30382e-06 0)
(4.61167e-06 -1.47159e-06 0)
(5.87001e-06 -1.62913e-06 0)
(7.24801e-06 -1.77768e-06 0)
(8.74062e-06 -1.91652e-06 0)
(1.03394e-05 -2.04642e-06 0)
(1.2038e-05 -2.16736e-06 0)
(1.38299e-05 -2.27882e-06 0)
(1.57075e-05 -2.3821e-06 0)
(1.7665e-05 -2.47661e-06 0)
(1.9695e-05 -2.56234e-06 0)
(2.17909e-05 -2.64051e-06 0)
(2.39467e-05 -2.70965e-06 0)
(2.61556e-05 -2.7714e-06 0)
(2.84115e-05 -2.82568e-06 0)
(3.0709e-05 -2.87227e-06 0)
(3.30421e-05 -2.91246e-06 0)
(3.54049e-05 -2.94544e-06 0)
(3.77924e-05 -2.97139e-06 0)
(4.0199e-05 -2.99126e-06 0)
(4.26197e-05 -3.00466e-06 0)
(4.50501e-05 -3.01241e-06 0)
(4.74848e-05 -3.01465e-06 0)
(4.99199e-05 -3.01137e-06 0)
(5.23508e-05 -3.00293e-06 0)
(5.47734e-05 -2.98937e-06 0)
(5.71839e-05 -2.97126e-06 0)
(5.95785e-05 -2.94853e-06 0)
(6.19536e-05 -2.9217e-06 0)
(6.43058e-05 -2.89057e-06 0)
(6.66316e-05 -2.85547e-06 0)
(6.89281e-05 -2.81681e-06 0)
(7.11924e-05 -2.77452e-06 0)
(7.34218e-05 -2.72905e-06 0)
(7.56134e-05 -2.68057e-06 0)
(7.77648e-05 -2.62906e-06 0)
(7.98737e-05 -2.57457e-06 0)
(8.19377e-05 -2.5176e-06 0)
(8.39547e-05 -2.4582e-06 0)
(8.59229e-05 -2.39622e-06 0)
(8.78403e-05 -2.33206e-06 0)
(8.97047e-05 -2.26594e-06 0)
(9.15151e-05 -2.19763e-06 0)
(9.32698e-05 -2.12743e-06 0)
(9.4967e-05 -2.05583e-06 0)
(9.66056e-05 -1.98266e-06 0)
(9.81845e-05 -1.90774e-06 0)
(9.97022e-05 -1.83153e-06 0)
(0.000101157 -1.75421e-06 0)
(0.00010255 -1.67566e-06 0)
(0.000103878 -1.59601e-06 0)
(0.000105141 -1.51554e-06 0)
(0.000106339 -1.43418e-06 0)
(0.00010747 -1.35167e-06 0)
(0.000108533 -1.26818e-06 0)
(0.000109529 -1.18402e-06 0)
(0.000110456 -1.09923e-06 0)
(0.000111314 -1.01382e-06 0)
(0.000112103 -9.27909e-07 0)
(0.000112821 -8.41641e-07 0)
(0.000113469 -7.54873e-07 0)
(0.000114047 -6.67513e-07 0)
(0.000114553 -5.79847e-07 0)
(0.000114989 -4.92065e-07 0)
(0.000115352 -4.04073e-07 0)
(0.000115645 -3.15816e-07 0)
(0.000115865 -2.27429e-07 0)
(0.000116014 -1.39046e-07 0)
(0.00011609 -5.06178e-08 0)
(0.000116095 3.789e-08 0)
(0.000116028 1.26402e-07 0)
(0.000115888 2.14832e-07 0)
(0.000115677 3.0315e-07 0)
(0.000115395 3.91354e-07 0)
(0.00011504 4.79334e-07 0)
(0.000114614 5.6703e-07 0)
(0.000114117 6.54455e-07 0)
(0.000113549 7.41639e-07 0)
(0.00011291 8.28538e-07 0)
(0.000112201 9.1498e-07 0)
(0.000111422 1.00092e-06 0)
(0.000110573 1.0864e-06 0)
(0.000109655 1.17136e-06 0)
(0.000108668 1.25564e-06 0)
(0.000107613 1.33915e-06 0)
(0.000106491 1.42186e-06 0)
(0.000105301 1.50373e-06 0)
(0.000104046 1.5847e-06 0)
(0.000102726 1.66468e-06 0)
(0.000101341 1.74359e-06 0)
(9.98922e-05 1.82136e-06 0)
(9.83813e-05 1.89788e-06 0)
(9.68091e-05 1.97302e-06 0)
(9.51766e-05 2.04669e-06 0)
(9.34851e-05 2.11882e-06 0)
(9.17361e-05 2.18926e-06 0)
(8.99309e-05 2.25782e-06 0)
(8.80711e-05 2.32438e-06 0)
(8.61583e-05 2.38885e-06 0)
(8.41944e-05 2.45118e-06 0)
(8.21811e-05 2.51121e-06 0)
(8.01205e-05 2.56872e-06 0)
(7.80147e-05 2.6236e-06 0)
(7.58658e-05 2.67571e-06 0)
(7.36763e-05 2.72488e-06 0)
(7.14485e-05 2.77093e-06 0)
(6.91852e-05 2.8137e-06 0)
(6.68891e-05 2.85297e-06 0)
(6.45632e-05 2.8885e-06 0)
(6.22106e-05 2.9201e-06 0)
(5.98344e-05 2.94761e-06 0)
(5.74382e-05 2.97084e-06 0)
(5.50254e-05 2.98959e-06 0)
(5.25999e-05 3.00359e-06 0)
(5.01656e-05 3.01254e-06 0)
(4.77266e-05 3.01617e-06 0)
(4.52873e-05 3.01433e-06 0)
(4.2852e-05 3.00686e-06 0)
(4.04256e-05 2.9935e-06 0)
(3.80127e-05 2.97392e-06 0)
(3.56187e-05 2.94782e-06 0)
(3.32489e-05 2.91491e-06 0)
(3.09089e-05 2.87494e-06 0)
(2.86041e-05 2.82766e-06 0)
(2.63406e-05 2.77281e-06 0)
(2.41245e-05 2.7101e-06 0)
(2.19621e-05 2.63924e-06 0)
(1.98601e-05 2.55995e-06 0)
(1.78251e-05 2.47194e-06 0)
(1.5864e-05 2.37498e-06 0)
(1.39837e-05 2.26888e-06 0)
(1.21913e-05 2.1535e-06 0)
(1.04941e-05 2.02869e-06 0)
(8.89919e-06 1.8943e-06 0)
(7.41381e-06 1.75029e-06 0)
(6.04494e-06 1.59685e-06 0)
(4.79932e-06 1.43434e-06 0)
(3.6832e-06 1.26334e-06 0)
(2.70214e-06 1.0847e-06 0)
(1.86069e-06 8.99728e-07 0)
(1.16213e-06 7.10378e-07 0)
(6.07757e-07 5.19647e-07 0)
(1.96139e-07 3.31911e-07 0)
(-7.7906e-08 1.5342e-07 0)
(-2.24635e-07 -6.72214e-09 0)
(-2.60626e-07 -1.3531e-07 0)
(-2.10598e-07 -2.13699e-07 0)
(-1.14359e-07 -2.16935e-07 0)
(-3.03601e-08 -1.16363e-07 0)
(-1.6509e-08 1.19931e-07 0)
(-6.72834e-08 4.0793e-07 0)
(-1.2404e-07 5.29047e-07 0)
(-1.30078e-07 3.65412e-07 0)
(-2.47051e-08 4.48985e-08 0)
(2.34543e-07 -3.37935e-07 0)
(6.69871e-07 -7.36715e-07 0)
(1.29482e-06 -1.13173e-06 0)
(2.11348e-06 -1.51531e-06 0)
(3.1243e-06 -1.88455e-06 0)
(4.3234e-06 -2.23748e-06 0)
(5.70544e-06 -2.57548e-06 0)
(7.26285e-06 -2.89547e-06 0)
(8.98824e-06 -3.19932e-06 0)
(1.08735e-05 -3.48574e-06 0)
(1.29094e-05 -3.75432e-06 0)
(1.50877e-05 -4.00657e-06 0)
(1.73995e-05 -4.24095e-06 0)
(1.98355e-05 -4.45916e-06 0)
(2.23873e-05 -4.66011e-06 0)
(2.50459e-05 -4.84462e-06 0)
(2.78021e-05 -5.01302e-06 0)
(3.06475e-05 -5.16521e-06 0)
(3.35736e-05 -5.30175e-06 0)
(3.65717e-05 -5.42353e-06 0)
(3.96343e-05 -5.53012e-06 0)
(4.27529e-05 -5.62288e-06 0)
(4.59199e-05 -5.70192e-06 0)
(4.91282e-05 -5.76725e-06 0)
(5.23698e-05 -5.81989e-06 0)
(5.56381e-05 -5.85964e-06 0)
(5.89265e-05 -5.88741e-06 0)
(6.22277e-05 -5.9036e-06 0)
(6.55362e-05 -5.90906e-06 0)
(6.88453e-05 -5.90352e-06 0)
(7.21494e-05 -5.88824e-06 0)
(7.5443e-05 -5.86283e-06 0)
(7.87204e-05 -5.82822e-06 0)
(8.19769e-05 -5.78468e-06 0)
(8.52073e-05 -5.73283e-06 0)
(8.84072e-05 -5.67262e-06 0)
(9.15717e-05 -5.60507e-06 0)
(9.46969e-05 -5.52988e-06 0)
(9.77788e-05 -5.44774e-06 0)
(0.000100813 -5.35923e-06 0)
(0.000103797 -5.26457e-06 0)
(0.000106727 -5.16394e-06 0)
(0.000109598 -5.05768e-06 0)
(0.000112409 -4.94617e-06 0)
(0.000115157 -4.82951e-06 0)
(0.000117838 -4.70815e-06 0)
(0.00012045 -4.58265e-06 0)
(0.000122991 -4.45303e-06 0)
(0.000125458 -4.31939e-06 0)
(0.000127849 -4.18226e-06 0)
(0.000130163 -4.04182e-06 0)
(0.000132397 -3.89799e-06 0)
(0.000134549 -3.75122e-06 0)
(0.000136618 -3.60189e-06 0)
(0.000138603 -3.44991e-06 0)
(0.000140501 -3.29534e-06 0)
(0.000142313 -3.1387e-06 0)
(0.000144035 -2.98028e-06 0)
(0.000145668 -2.82004e-06 0)
(0.000147211 -2.65804e-06 0)
(0.000148662 -2.49446e-06 0)
(0.00015002 -2.32927e-06 0)
(0.000151284 -2.16244e-06 0)
(0.000152455 -1.99429e-06 0)
(0.00015353 -1.82519e-06 0)
(0.00015451 -1.65527e-06 0)
(0.000155395 -1.48449e-06 0)
(0.000156183 -1.31291e-06 0)
(0.000156874 -1.14075e-06 0)
(0.000157467 -9.68058e-07 0)
(0.000157964 -7.94782e-07 0)
(0.000158363 -6.21076e-07 0)
(0.000158663 -4.47154e-07 0)
(0.000158866 -2.73092e-07 0)
(0.000158971 -9.89111e-08 0)
(0.000158977 7.53027e-08 0)
(0.000158885 2.49446e-07 0)
(0.000158695 4.23482e-07 0)
(0.000158406 5.9739e-07 0)
(0.00015802 7.71032e-07 0)
(0.000157536 9.44201e-07 0)
(0.000156955 1.11685e-06 0)
(0.000156276 1.289e-06 0)
(0.000155501 1.46061e-06 0)
(0.000154628 1.63154e-06 0)
(0.00015366 1.80162e-06 0)
(0.000152597 1.97077e-06 0)
(0.000151438 2.13892e-06 0)
(0.000150185 2.3059e-06 0)
(0.000148838 2.47156e-06 0)
(0.000147399 2.6358e-06 0)
(0.000145867 2.7985e-06 0)
(0.000144245 2.95947e-06 0)
(0.000142532 3.11856e-06 0)
(0.000140731 3.27569e-06 0)
(0.000138842 3.43072e-06 0)
(0.000136866 3.58345e-06 0)
(0.000134806 3.73367e-06 0)
(0.000132662 3.88112e-06 0)
(0.000130436 4.02561e-06 0)
(0.00012813 4.16697e-06 0)
(0.000125746 4.30499e-06 0)
(0.000123285 4.43936e-06 0)
(0.000120751 4.56984e-06 0)
(0.000118144 4.69622e-06 0)
(0.000115468 4.81819e-06 0)
(0.000112726 4.93556e-06 0)
(0.000109919 5.04807e-06 0)
(0.00010705 5.15543e-06 0)
(0.000104124 5.25728e-06 0)
(0.000101142 5.35325e-06 0)
(9.81094e-05 5.44296e-06 0)
(9.50285e-05 5.52609e-06 0)
(9.19034e-05 5.60234e-06 0)
(8.87382e-05 5.67134e-06 0)
(8.55371e-05 5.73266e-06 0)
(8.23045e-05 5.78593e-06 0)
(7.90451e-05 5.83075e-06 0)
(7.57637e-05 5.86669e-06 0)
(7.24655e-05 5.8933e-06 0)
(6.91557e-05 5.9101e-06 0)
(6.584e-05 5.91662e-06 0)
(6.25242e-05 5.91241e-06 0)
(5.92145e-05 5.89704e-06 0)
(5.5917e-05 5.87005e-06 0)
(5.26384e-05 5.83093e-06 0)
(4.93857e-05 5.77921e-06 0)
(4.61659e-05 5.71437e-06 0)
(4.29865e-05 5.63581e-06 0)
(3.98552e-05 5.54298e-06 0)
(3.67799e-05 5.43536e-06 0)
(3.37686e-05 5.31248e-06 0)
(3.08299e-05 5.17394e-06 0)
(2.79723e-05 5.01929e-06 0)
(2.52047e-05 4.84804e-06 0)
(2.2536e-05 4.65974e-06 0)
(1.99755e-05 4.45402e-06 0)
(1.75325e-05 4.2306e-06 0)
(1.52162e-05 3.98934e-06 0)
(1.30356e-05 3.73022e-06 0)
(1.09999e-05 3.45341e-06 0)
(9.11785e-06 3.15937e-06 0)
(7.39787e-06 2.84893e-06 0)
(5.84749e-06 2.52332e-06 0)
(4.47333e-06 2.18435e-06 0)
(3.28068e-06 1.8348e-06 0)
(2.27295e-06 1.47867e-06 0)
(1.45111e-06 1.1216e-06 0)
(8.12771e-07 7.71584e-07 0)
(3.51244e-07 4.39674e-07 0)
(5.42682e-08 1.41185e-07 0)
(-9.7177e-08 -1.02659e-07 0)
(-1.30372e-07 -2.63234e-07 0)
(-8.69231e-08 -3.03473e-07 0)
(-2.60983e-08 -1.77324e-07 0)
(-1.11531e-08 1.44676e-07 0)
(-1.69878e-08 4.26687e-07 0)
(2.85282e-08 4.99807e-07 0)
(1.66096e-07 2.40902e-07 0)
(4.41083e-07 -2.21969e-07 0)
(8.89812e-07 -7.81089e-07 0)
(1.54094e-06 -1.37733e-06 0)
(2.41044e-06 -1.98013e-06 0)
(3.50667e-06 -2.5748e-06 0)
(4.83039e-06 -3.15351e-06 0)
(6.37822e-06 -3.71218e-06 0)
(8.1456e-06 -4.24791e-06 0)
(1.01253e-05 -4.75973e-06 0)
(1.23079e-05 -5.24532e-06 0)
(1.4685e-05 -5.70475e-06 0)
(1.72464e-05 -6.13787e-06 0)
(1.99815e-05 -6.54335e-06 0)
(2.28799e-05 -6.92279e-06 0)
(2.59312e-05 -7.27514e-06 0)
(2.91248e-05 -7.60084e-06 0)
(3.24494e-05 -7.90041e-06 0)
(3.58948e-05 -8.17358e-06 0)
(3.94504e-05 -8.42113e-06 0)
(4.31054e-05 -8.64398e-06 0)
(4.68503e-05 -8.8422e-06 0)
(5.06748e-05 -9.01696e-06 0)
(5.45688e-05 -9.16883e-06 0)
(5.85238e-05 -9.29813e-06 0)
(6.25295e-05 -9.40572e-06 0)
(6.65775e-05 -9.49241e-06 0)
(7.06591e-05 -9.55855e-06 0)
(7.47654e-05 -9.60522e-06 0)
(7.88888e-05 -9.63315e-06 0)
(8.30212e-05 -9.64276e-06 0)
(8.71551e-05 -9.63545e-06 0)
(9.12831e-05 -9.61119e-06 0)
(9.53985e-05 -9.57127e-06 0)
(9.94943e-05 -9.51598e-06 0)
(0.000103564 -9.4461e-06 0)
(0.000107602 -9.36229e-06 0)
(0.000111602 -9.26524e-06 0)
(0.000115559 -9.15576e-06 0)
(0.000119467 -9.034e-06 0)
(0.000123321 -8.90112e-06 0)
(0.000127116 -8.75742e-06 0)
(0.000130849 -8.60342e-06 0)
(0.000134513 -8.4398e-06 0)
(0.000138107 -8.26713e-06 0)
(0.000141624 -8.08557e-06 0)
(0.000145062 -7.89557e-06 0)
(0.000148418 -7.69802e-06 0)
(0.000151687 -7.49329e-06 0)
(0.000154868 -7.28163e-06 0)
(0.000157957 -7.06379e-06 0)
(0.000160951 -6.84014e-06 0)
(0.000163847 -6.61067e-06 0)
(0.000166645 -6.37579e-06 0)
(0.00016934 -6.13627e-06 0)
(0.000171932 -5.89235e-06 0)
(0.000174418 -5.64404e-06 0)
(0.000176796 -5.3918e-06 0)
(0.000179065 -5.13596e-06 0)
(0.000181223 -4.87666e-06 0)
(0.000183269 -4.61419e-06 0)
(0.000185201 -4.34903e-06 0)
(0.000187019 -4.08142e-06 0)
(0.000188721 -3.81125e-06 0)
(0.000190305 -3.5386e-06 0)
(0.000191772 -3.26386e-06 0)
(0.00019312 -2.98729e-06 0)
(0.000194348 -2.70902e-06 0)
(0.000195456 -2.42934e-06 0)
(0.000196444 -2.14862e-06 0)
(0.00019731 -1.86696e-06 0)
(0.000198054 -1.58431e-06 0)
(0.000198676 -1.30073e-06 0)
(0.000199176 -1.01649e-06 0)
(0.000199553 -7.31808e-07 0)
(0.000199807 -4.4674e-07 0)
(0.000199938 -1.61478e-07 0)
(0.000199946 1.23759e-07 0)
(0.000199831 4.08898e-07 0)
(0.000199592 6.93867e-07 0)
(0.000199231 9.78596e-07 0)
(0.000198747 1.26284e-06 0)
(0.00019814 1.54636e-06 0)
(0.000197411 1.82911e-06 0)
(0.00019656 2.11101e-06 0)
(0.000195588 2.3919e-06 0)
(0.000194495 2.67158e-06 0)
(0.000193281 2.94992e-06 0)
(0.000191948 3.22678e-06 0)
(0.000190496 3.50191e-06 0)
(0.000188925 3.77507e-06 0)
(0.000187238 4.04606e-06 0)
(0.000185434 4.31471e-06 0)
(0.000183515 4.5808e-06 0)
(0.000181482 4.84407e-06 0)
(0.000179336 5.10424e-06 0)
(0.000177079 5.36108e-06 0)
(0.000174712 5.61438e-06 0)
(0.000172237 5.86385e-06 0)
(0.000169657 6.10913e-06 0)
(0.000166971 6.34991e-06 0)
(0.000164184 6.58584e-06 0)
(0.000161296 6.81655e-06 0)
(0.000158311 7.04167e-06 0)
(0.000155231 7.26085e-06 0)
(0.000152058 7.47369e-06 0)
(0.000148795 7.67978e-06 0)
(0.000145446 7.87863e-06 0)
(0.000142013 8.06981e-06 0)
(0.000138501 8.25294e-06 0)
(0.000134912 8.4276e-06 0)
(0.000131251 8.5932e-06 0)
(0.000127522 8.74917e-06 0)
(0.000123728 8.8949e-06 0)
(0.000119875 9.02983e-06 0)
(0.000115967 9.15339e-06 0)
(0.00011201 9.26507e-06 0)
(0.000108008 9.36423e-06 0)
(0.000103967 9.45022e-06 0)
(9.98936e-05 9.52237e-06 0)
(9.57929e-05 9.57999e-06 0)
(9.16716e-05 9.62233e-06 0)
(8.75363e-05 9.64872e-06 0)
(8.3394e-05 9.65849e-06 0)
(7.9252e-05 9.6509e-06 0)
(7.51178e-05 9.62512e-06 0)
(7.09992e-05 9.58033e-06 0)
(6.69046e-05 9.51577e-06 0)
(6.28423e-05 9.43071e-06 0)
(5.88213e-05 9.3244e-06 0)
(5.48505e-05 9.19602e-06 0)
(5.09394e-05 9.04469e-06 0)
(4.70978e-05 8.86959e-06 0)
(4.33356e-05 8.66992e-06 0)
(3.9663e-05 8.44501e-06 0)
(3.60906e-05 8.19424e-06 0)
(3.26289e-05 7.91698e-06 0)
(2.92889e-05 7.61265e-06 0)
(2.60816e-05 7.28076e-06 0)
(2.30181e-05 6.92097e-06 0)
(2.01093e-05 6.5331e-06 0)
(1.7366e-05 6.11731e-06 0)
(1.47989e-05 5.67412e-06 0)
(1.2418e-05 5.20447e-06 0)
(1.0233e-05 4.70984e-06 0)
(8.25244e-06 4.19242e-06 0)
(6.48371e-06 3.65533e-06 0)
(4.93253e-06 3.10315e-06 0)
(3.60245e-06 2.54227e-06 0)
(2.49424e-06 1.98144e-06 0)
(1.60502e-06 1.43262e-06 0)
(9.27319e-07 9.11945e-07 0)
(4.48181e-07 4.41087e-07 0)
(1.47987e-07 4.90755e-08 0)
(-1.01164e-09 -2.25898e-07 0)
(-3.85369e-08 -3.35264e-07 0)
(-1.75375e-08 -2.17076e-07 0)
(-4.78392e-09 1.45449e-07 0)
(3.72001e-08 3.67016e-07 0)
(1.93225e-07 3.4258e-07 0)
(4.86744e-07 -4.74935e-08 0)
(9.48047e-07 -6.79673e-07 0)
(1.61103e-06 -1.43952e-06 0)
(2.50118e-06 -2.25952e-06 0)
(3.63661e-06 -3.09896e-06 0)
(5.02654e-06 -3.93594e-06 0)
(6.67433e-06 -4.75729e-06 0)
(8.57828e-06 -5.55477e-06 0)
(1.07328e-05 -6.32321e-06 0)
(1.31311e-05 -7.05903e-06 0)
(1.57641e-05 -7.75998e-06 0)
(1.86209e-05 -8.42431e-06 0)
(2.16919e-05 -9.05119e-06 0)
(2.49648e-05 -9.64051e-06 0)
(2.84274e-05 -1.01914e-05 0)
(3.20686e-05 -1.0704e-05 0)
(3.58749e-05 -1.11787e-05 0)
(3.98351e-05 -1.16152e-05 0)
(4.39364e-05 -1.20142e-05 0)
(4.8166e-05 -1.23763e-05 0)
(5.25132e-05 -1.27022e-05 0)
(5.69655e-05 -1.29929e-05 0)
(6.15113e-05 -1.32495e-05 0)
(6.61396e-05 -1.34725e-05 0)
(7.08389e-05 -1.36628e-05 0)
(7.55986e-05 -1.38218e-05 0)
(8.0408e-05 -1.39494e-05 0)
(8.52572e-05 -1.40479e-05 0)
(9.01361e-05 -1.41177e-05 0)
(9.50351e-05 -1.41599e-05 0)
(9.99451e-05 -1.41756e-05 0)
(0.000104857 -1.41659e-05 0)
(0.000109762 -1.41317e-05 0)
(0.000114653 -1.40743e-05 0)
(0.000119521 -1.39944e-05 0)
(0.000124358 -1.3893e-05 0)
(0.000129158 -1.37711e-05 0)
(0.000133914 -1.36298e-05 0)
(0.000138618 -1.34696e-05 0)
(0.000143264 -1.3292e-05 0)
(0.000147847 -1.30977e-05 0)
(0.000152361 -1.28872e-05 0)
(0.0001568 -1.26617e-05 0)
(0.000161159 -1.24219e-05 0)
(0.000165433 -1.21685e-05 0)
(0.000169618 -1.19021e-05 0)
(0.000173709 -1.16236e-05 0)
(0.000177701 -1.13338e-05 0)
(0.000181592 -1.10331e-05 0)
(0.000185377 -1.07223e-05 0)
(0.000189053 -1.04024e-05 0)
(0.000192617 -1.00735e-05 0)
(0.000196066 -9.73602e-06 0)
(0.000199396 -9.39084e-06 0)
(0.000202604 -9.03847e-06 0)
(0.00020569 -8.67929e-06 0)
(0.00020865 -8.31388e-06 0)
(0.000211482 -7.94285e-06 0)
(0.000214184 -7.56644e-06 0)
(0.000216754 -7.18483e-06 0)
(0.000219191 -6.79851e-06 0)
(0.000221492 -6.40797e-06 0)
(0.000223657 -6.01345e-06 0)
(0.000225683 -5.61519e-06 0)
(0.000227571 -5.21362e-06 0)
(0.000229318 -4.80915e-06 0)
(0.000230924 -4.40189e-06 0)
(0.000232387 -3.99203e-06 0)
(0.000233707 -3.58007e-06 0)
(0.000234883 -3.16645e-06 0)
(0.000235915 -2.75125e-06 0)
(0.000236802 -2.33462e-06 0)
(0.000237544 -1.91678e-06 0)
(0.000238139 -1.49798e-06 0)
(0.000238588 -1.07841e-06 0)
(0.000238891 -6.58247e-07 0)
(0.000239047 -2.37788e-07 0)
(0.000239056 1.82702e-07 0)
(0.000238919 6.03097e-07 0)
(0.000238635 1.02325e-06 0)
(0.000238204 1.44293e-06 0)
(0.000237628 1.86183e-06 0)
(0.000236904 2.27976e-06 0)
(0.000236036 2.6966e-06 0)
(0.000235022 3.11214e-06 0)
(0.000233864 3.52607e-06 0)
(0.000232561 3.93818e-06 0)
(0.000231115 4.34832e-06 0)
(0.000229527 4.7562e-06 0)
(0.000227797 5.1615e-06 0)
(0.000225926 5.56389e-06 0)
(0.000223915 5.96306e-06 0)
(0.000221767 6.35874e-06 0)
(0.000219481 6.75057e-06 0)
(0.000217059 7.13819e-06 0)
(0.000214503 7.52124e-06 0)
(0.000211816 7.89935e-06 0)
(0.000208997 8.27209e-06 0)
(0.00020605 8.63905e-06 0)
(0.000202977 8.99976e-06 0)
(0.00019978 9.3538e-06 0)
(0.000196462 9.70069e-06 0)
(0.000193024 1.00398e-05 0)
(0.000189471 1.03707e-05 0)
(0.000185805 1.06927e-05 0)
(0.000182029 1.10053e-05 0)
(0.000178146 1.1308e-05 0)
(0.000174161 1.15999e-05 0)
(0.000170077 1.18806e-05 0)
(0.000165898 1.21493e-05 0)
(0.000161629 1.24053e-05 0)
(0.000157275 1.26479e-05 0)
(0.000152839 1.28763e-05 0)
(0.000148328 1.30896e-05 0)
(0.000143746 1.3287e-05 0)
(0.0001391 1.34676e-05 0)
(0.000134395 1.36307e-05 0)
(0.000129638 1.37753e-05 0)
(0.000124835 1.39005e-05 0)
(0.000119993 1.40054e-05 0)
(0.000115119 1.40889e-05 0)
(0.000110222 1.41499e-05 0)
(0.000105308 1.41876e-05 0)
(0.000100387 1.42009e-05 0)
(9.54655e-05 1.41887e-05 0)
(9.05539e-05 1.415e-05 0)
(8.5661e-05 1.40835e-05 0)
(8.07966e-05 1.39881e-05 0)
(7.59706e-05 1.38627e-05 0)
(7.11934e-05 1.37062e-05 0)
(6.64755e-05 1.35176e-05 0)
(6.18279e-05 1.32956e-05 0)
(5.7262e-05 1.30393e-05 0)
(5.27893e-05 1.27475e-05 0)
(4.84218e-05 1.24192e-05 0)
(4.41715e-05 1.20536e-05 0)
(4.00507e-05 1.16497e-05 0)
(3.6072e-05 1.1207e-05 0)
(3.22478e-05 1.07249e-05 0)
(2.85909e-05 1.02031e-05 0)
(2.51134e-05 9.64162e-06 0)
(2.18277e-05 9.04075e-06 0)
(1.87455e-05 8.40146e-06 0)
(1.58783e-05 7.72529e-06 0)
(1.32365e-05 7.01456e-06 0)
(1.08294e-05 6.27265e-06 0)
(8.66508e-06 5.50428e-06 0)
(6.74972e-06 4.71607e-06 0)
(5.08704e-06 3.91704e-06 0)
(3.67784e-06 3.1192e-06 0)
(2.51925e-06 2.33858e-06 0)
(1.60398e-06 1.59635e-06 0)
(9.19416e-07 9.20306e-07 0)
(4.46628e-07 3.46765e-07 0)
(1.59132e-07 -7.74707e-08 0)
(2.19092e-08 -2.93697e-07 0)
(-6.91612e-09 -2.27481e-07 0)
(3.01274e-09 1.18149e-07 0)
(9.553e-08 2.24135e-07 0)
(3.63782e-07 4.98645e-08 0)
(8.18205e-07 -5.13316e-07 0)
(1.47828e-06 -1.34547e-06 0)
(2.3692e-06 -2.33414e-06 0)
(3.51452e-06 -3.4027e-06 0)
(4.93097e-06 -4.50577e-06 0)
(6.62809e-06 -5.61285e-06 0)
(8.61005e-06 -6.70487e-06 0)
(1.08746e-05 -7.7707e-06 0)
(1.34184e-05 -8.8011e-06 0)
(1.62332e-05 -9.79054e-06 0)
(1.93093e-05 -1.07356e-05 0)
(2.2637e-05 -1.16326e-05 0)
(2.62036e-05 -1.2481e-05 0)
(2.9997e-05 -1.32791e-05 0)
(3.40045e-05 -1.40261e-05 0)
(3.82117e-05 -1.47224e-05 0)
(4.26062e-05 -1.53672e-05 0)
(4.71733e-05 -1.59608e-05 0)
(5.18997e-05 -1.65042e-05 0)
(5.67721e-05 -1.69978e-05 0)
(6.17766e-05 -1.74424e-05 0)
(6.69005e-05 -1.78398e-05 0)
(7.21304e-05 -1.81904e-05 0)
(7.74536e-05 -1.84956e-05 0)
(8.28575e-05 -1.87566e-05 0)
(8.83301e-05 -1.89743e-05 0)
(9.38594e-05 -1.91503e-05 0)
(9.94335e-05 -1.92858e-05 0)
(0.000105042 -1.93825e-05 0)
(0.000110673 -1.94414e-05 0)
(0.000116317 -1.94643e-05 0)
(0.000121963 -1.94521e-05 0)
(0.000127601 -1.94066e-05 0)
(0.000133223 -1.9329e-05 0)
(0.000138819 -1.92206e-05 0)
(0.00014438 -1.90829e-05 0)
(0.000149898 -1.89169e-05 0)
(0.000155366 -1.87241e-05 0)
(0.000160775 -1.85056e-05 0)
(0.000166118 -1.82631e-05 0)
(0.000171388 -1.79972e-05 0)
(0.000176579 -1.77095e-05 0)
(0.000181685 -1.74009e-05 0)
(0.000186699 -1.70725e-05 0)
(0.000191615 -1.67251e-05 0)
(0.000196429 -1.636e-05 0)
(0.000201135 -1.59784e-05 0)
(0.000205729 -1.55809e-05 0)
(0.000210206 -1.51686e-05 0)
(0.000214562 -1.47424e-05 0)
(0.000218792 -1.43033e-05 0)
(0.000222893 -1.38516e-05 0)
(0.000226862 -1.33885e-05 0)
(0.000230695 -1.29147e-05 0)
(0.000234389 -1.24307e-05 0)
(0.000237941 -1.19372e-05 0)
(0.000241349 -1.14351e-05 0)
(0.000244609 -1.09251e-05 0)
(0.00024772 -1.04075e-05 0)
(0.000250679 -9.88303e-06 0)
(0.000253485 -9.35217e-06 0)
(0.000256135 -8.81529e-06 0)
(0.000258627 -8.27267e-06 0)
(0.000260961 -7.72489e-06 0)
(0.000263135 -7.17257e-06 0)
(0.000265147 -6.61616e-06 0)
(0.000266996 -6.05592e-06 0)
(0.000268681 -5.49232e-06 0)
(0.000270202 -4.92587e-06 0)