/*--------------------------------*- C++ -*----------------------------------*\
  =========                 |
  \\      /  F ield         | OpenFOAM: The Open Source CFD Toolbox
   \\    /   O peration     | Website:  https://openfoam.org
    \\  /    A nd           | Version:  7
     \\/     M anipulation  |
\*---------------------------------------------------------------------------*/
FoamFile
{
    version     2.0;
    format      ascii;
    class       volVectorField;
    location    "0.1625";
    object      U;
}
// * * * * * * * * * * * * * * * * * * * * * * * * * * * * * * * * * * * * * //

dimensions      [0 1 -1 0 0 0 0];

internalField   nonuniform List<vector> 
51200
(
(1.11487e-09 4.92437e-09 0)
(5.21848e-08 -1.59099e-07 0)
(3.84241e-07 -2.72002e-07 0)
(7.36892e-07 -2.1089e-07 0)
(1.02023e-06 -1.27531e-07 0)
(1.18919e-06 -7.05109e-08 0)
(1.2895e-06 -3.61374e-08 0)
(1.3478e-06 -1.75722e-08 0)
(1.37779e-06 -4.424e-09 0)
(1.38608e-06 2.75011e-09 0)
(1.37457e-06 9.93855e-09 0)
(1.34425e-06 1.57392e-08 0)
(1.29296e-06 2.15111e-08 0)
(1.22236e-06 2.78162e-08 0)
(1.13035e-06 3.21159e-08 0)
(1.0185e-06 3.76977e-08 0)
(8.85737e-07 4.30978e-08 0)
(7.30748e-07 4.92029e-08 0)
(5.56649e-07 5.56541e-08 0)
(3.61607e-07 6.01748e-08 0)
(1.47035e-07 6.4866e-08 0)
(-8.55376e-08 6.99484e-08 0)
(-3.37375e-07 7.44891e-08 0)
(-6.06166e-07 8.0119e-08 0)
(-8.91087e-07 8.50554e-08 0)
(-1.19239e-06 8.83975e-08 0)
(-1.5072e-06 9.212e-08 0)
(-1.83554e-06 9.55846e-08 0)
(-2.1774e-06 9.85194e-08 0)
(-2.5297e-06 1.02173e-07 0)
(-2.89264e-06 1.05661e-07 0)
(-3.26594e-06 1.08074e-07 0)
(-3.64639e-06 1.10525e-07 0)
(-4.03433e-06 1.1294e-07 0)
(-4.42953e-06 1.14219e-07 0)
(-4.82909e-06 1.15306e-07 0)
(-5.23304e-06 1.1678e-07 0)
(-5.64126e-06 1.17443e-07 0)
(-6.0513e-06 1.17811e-07 0)
(-6.46237e-06 1.18678e-07 0)
(-6.87453e-06 1.1843e-07 0)
(-7.28648e-06 1.17062e-07 0)
(-7.69672e-06 1.16105e-07 0)
(-8.10537e-06 1.14976e-07 0)
(-8.51187e-06 1.13149e-07 0)
(-8.91427e-06 1.11808e-07 0)
(-9.31231e-06 1.10975e-07 0)
(-9.70605e-06 1.09376e-07 0)
(-1.00939e-05 1.07461e-07 0)
(-1.04748e-05 1.06398e-07 0)
(-1.08494e-05 1.05454e-07 0)
(-1.12168e-05 1.03736e-07 0)
(-1.15758e-05 1.01809e-07 0)
(-1.19262e-05 9.94922e-08 0)
(-1.22677e-05 9.59145e-08 0)
(-1.25993e-05 9.17842e-08 0)
(-1.29203e-05 8.82863e-08 0)
(-1.32307e-05 8.51668e-08 0)
(-1.35305e-05 8.18876e-08 0)
(-1.38188e-05 7.86578e-08 0)
(-1.40949e-05 7.56699e-08 0)
(-1.43591e-05 7.27595e-08 0)
(-1.46113e-05 6.97517e-08 0)
(-1.48506e-05 6.6675e-08 0)
(-1.50768e-05 6.34006e-08 0)
(-1.52902e-05 5.92755e-08 0)
(-1.54899e-05 5.4159e-08 0)
(-1.56754e-05 4.91928e-08 0)
(-1.5847e-05 4.52736e-08 0)
(-1.60045e-05 4.19902e-08 0)
(-1.61477e-05 3.86518e-08 0)
(-1.62764e-05 3.50334e-08 0)
(-1.63904e-05 3.10761e-08 0)
(-1.64898e-05 2.66718e-08 0)
(-1.65745e-05 2.18909e-08 0)
(-1.66442e-05 1.7286e-08 0)
(-1.6699e-05 1.33201e-08 0)
(-1.67388e-05 9.52059e-09 0)
(-1.67637e-05 5.25373e-09 0)
(-1.67734e-05 8.59208e-10 0)
(-1.67679e-05 -3.12934e-09 0)
(-1.67475e-05 -7.02868e-09 0)
(-1.67122e-05 -1.13271e-08 0)
(-1.66619e-05 -1.5782e-08 0)
(-1.65968e-05 -1.99926e-08 0)
(-1.65167e-05 -2.40645e-08 0)
(-1.64221e-05 -2.82319e-08 0)
(-1.63132e-05 -3.24149e-08 0)
(-1.61897e-05 -3.63183e-08 0)
(-1.60517e-05 -3.986e-08 0)
(-1.58996e-05 -4.34529e-08 0)
(-1.57335e-05 -4.75447e-08 0)
(-1.55534e-05 -5.19505e-08 0)
(-1.53594e-05 -5.61163e-08 0)
(-1.5152e-05 -5.98578e-08 0)
(-1.49317e-05 -6.33641e-08 0)
(-1.46985e-05 -6.66913e-08 0)
(-1.44526e-05 -6.97209e-08 0)
(-1.41945e-05 -7.26606e-08 0)
(-1.39246e-05 -7.60803e-08 0)
(-1.3643e-05 -8.00786e-08 0)
(-1.335e-05 -8.39191e-08 0)
(-1.30462e-05 -8.68769e-08 0)
(-1.27322e-05 -8.90044e-08 0)
(-1.24087e-05 -9.0932e-08 0)
(-1.20758e-05 -9.32348e-08 0)
(-1.17338e-05 -9.59794e-08 0)
(-1.1383e-05 -9.88133e-08 0)
(-1.10241e-05 -1.01392e-07 0)
(-1.06579e-05 -1.03521e-07 0)
(-1.02851e-05 -1.05099e-07 0)
(-9.90623e-06 -1.06229e-07 0)
(-9.52189e-06 -1.07282e-07 0)
(-9.13277e-06 -1.08607e-07 0)
(-8.73953e-06 -1.10166e-07 0)
(-8.34279e-06 -1.11491e-07 0)
(-7.9433e-06 -1.12082e-07 0)
(-7.54199e-06 -1.11926e-07 0)
(-7.13977e-06 -1.11525e-07 0)
(-6.73747e-06 -1.11321e-07 0)
(-6.33585e-06 -1.1128e-07 0)
(-5.93556e-06 -1.11064e-07 0)
(-5.53747e-06 -1.1039e-07 0)
(-5.14264e-06 -1.09238e-07 0)
(-4.75208e-06 -1.07804e-07 0)
(-4.36659e-06 -1.06229e-07 0)
(-3.98706e-06 -1.0445e-07 0)
(-3.61462e-06 -1.02341e-07 0)
(-3.25055e-06 -9.98635e-08 0)
(-2.89597e-06 -9.70189e-08 0)
(-2.55181e-06 -9.37711e-08 0)
(-2.219e-06 -9.01218e-08 0)
(-1.89863e-06 -8.61968e-08 0)
(-1.59187e-06 -8.21536e-08 0)
(-1.29977e-06 -7.80012e-08 0)
(-1.02317e-06 -7.3549e-08 0)
(-7.63051e-07 -6.85675e-08 0)
(-5.20638e-07 -6.30398e-08 0)
(-2.97091e-07 -5.71975e-08 0)
(-9.32982e-08 -5.12509e-08 0)
(9.00757e-08 -4.51918e-08 0)
(2.52454e-07 -3.89132e-08 0)
(3.93203e-07 -3.24023e-08 0)
(5.11676e-07 -2.5766e-08 0)
(6.07441e-07 -1.91242e-08 0)
(6.80275e-07 -1.24574e-08 0)
(7.30017e-07 -5.5988e-09 0)
(7.56611e-07 1.57095e-09 0)
(7.60176e-07 8.9497e-09 0)
(7.41145e-07 1.61526e-08 0)
(7.00587e-07 2.26353e-08 0)
(6.40329e-07 2.80534e-08 0)
(5.62811e-07 3.25084e-08 0)
(4.71109e-07 3.62249e-08 0)
(3.69411e-07 3.88391e-08 0)
(2.63638e-07 3.91474e-08 0)
(1.61824e-07 3.56236e-08 0)
(7.43203e-08 2.69836e-08 0)
(1.46866e-08 1.26982e-08 0)
(-3.19244e-09 -3.03056e-09 0)
(-1.31076e-07 1.74059e-08 0)
(-9.53608e-08 -2.73459e-07 0)
(1.78528e-07 -6.00656e-07 0)
(6.1764e-07 -5.46293e-07 0)
(1.06445e-06 -3.8945e-07 0)
(1.42301e-06 -2.59084e-07 0)
(1.69745e-06 -1.68486e-07 0)
(1.90247e-06 -1.03544e-07 0)
(2.04391e-06 -5.49801e-08 0)
(2.12329e-06 -1.1348e-08 0)
(2.14289e-06 2.93578e-08 0)
(2.09883e-06 6.95247e-08 0)
(1.99424e-06 1.11563e-07 0)
(1.82381e-06 1.52973e-07 0)
(1.59041e-06 1.95766e-07 0)
(1.29243e-06 2.37682e-07 0)
(9.29075e-07 2.79161e-07 0)
(5.04558e-07 3.22083e-07 0)
(1.61124e-08 3.63286e-07 0)
(-5.31614e-07 4.03166e-07 0)
(-1.13679e-06 4.41979e-07 0)
(-1.80039e-06 4.78096e-07 0)
(-2.51623e-06 5.13617e-07 0)
(-3.28363e-06 5.48104e-07 0)
(-4.10134e-06 5.79876e-07 0)
(-4.96283e-06 6.10349e-07 0)
(-5.8679e-06 6.3855e-07 0)
(-6.81407e-06 6.63862e-07 0)
(-7.7956e-06 6.88078e-07 0)
(-8.81188e-06 7.10334e-07 0)
(-9.85991e-06 7.29871e-07 0)
(-1.09345e-05 7.48022e-07 0)
(-1.20346e-05 7.63997e-07 0)
(-1.31573e-05 7.77467e-07 0)
(-1.42978e-05 7.89365e-07 0)
(-1.54542e-05 7.99332e-07 0)
(-1.66245e-05 8.06727e-07 0)
(-1.78046e-05 8.12378e-07 0)
(-1.8992e-05 8.16637e-07 0)
(-2.01849e-05 8.18999e-07 0)
(-2.13796e-05 8.19382e-07 0)
(-2.25731e-05 8.18003e-07 0)
(-2.37643e-05 8.15131e-07 0)
(-2.49503e-05 8.10213e-07 0)
(-2.61281e-05 8.03739e-07 0)
(-2.72963e-05 7.96263e-07 0)
(-2.84527e-05 7.87143e-07 0)
(-2.95946e-05 7.76168e-07 0)
(-3.07203e-05 7.64137e-07 0)
(-3.18281e-05 7.51232e-07 0)
(-3.29161e-05 7.3709e-07 0)
(-3.39826e-05 7.21924e-07 0)
(-3.50256e-05 7.0602e-07 0)
(-3.60435e-05 6.88659e-07 0)
(-3.70347e-05 6.69383e-07 0)
(-3.79978e-05 6.49081e-07 0)
(-3.89315e-05 6.28345e-07 0)
(-3.98346e-05 6.06617e-07 0)
(-4.0706e-05 5.83957e-07 0)
(-4.15443e-05 5.61022e-07 0)
(-4.23482e-05 5.37475e-07 0)
(-4.31171e-05 5.12944e-07 0)
(-4.38499e-05 4.88053e-07 0)
(-4.45458e-05 4.63089e-07 0)
(-4.52036e-05 4.37583e-07 0)
(-4.58226e-05 4.11077e-07 0)
(-4.64021e-05 3.83406e-07 0)
(-4.69415e-05 3.55061e-07 0)
(-4.74404e-05 3.26746e-07 0)
(-4.78983e-05 2.98424e-07 0)
(-4.83146e-05 2.69934e-07 0)
(-4.86888e-05 2.41416e-07 0)
(-4.902e-05 2.12653e-07 0)
(-4.9308e-05 1.83247e-07 0)
(-4.95532e-05 1.53307e-07 0)
(-4.9755e-05 1.23379e-07 0)
(-4.9913e-05 9.37485e-08 0)
(-5.00273e-05 6.40608e-08 0)
(-5.00977e-05 3.39422e-08 0)
(-5.01241e-05 3.7436e-09 0)
(-5.01064e-05 -2.60257e-08 0)
(-5.00446e-05 -5.56272e-08 0)
(-4.99391e-05 -8.55461e-08 0)
(-4.979e-05 -1.15453e-07 0)
(-4.95971e-05 -1.44848e-07 0)
(-4.93607e-05 -1.74051e-07 0)
(-4.90813e-05 -2.03423e-07 0)
(-4.87596e-05 -2.32611e-07 0)
(-4.83955e-05 -2.61198e-07 0)
(-4.79894e-05 -2.89288e-07 0)
(-4.7542e-05 -3.17241e-07 0)
(-4.70538e-05 -3.45161e-07 0)
(-4.65249e-05 -3.72779e-07 0)
(-4.59558e-05 -3.99821e-07 0)
(-4.53475e-05 -4.26327e-07 0)
(-4.47012e-05 -4.52371e-07 0)
(-4.40174e-05 -4.77743e-07 0)
(-4.32969e-05 -5.02213e-07 0)
(-4.25403e-05 -5.25896e-07 0)
(-4.17489e-05 -5.49188e-07 0)
(-4.09237e-05 -5.72225e-07 0)
(-4.00658e-05 -5.94563e-07 0)
(-3.91764e-05 -6.15706e-07 0)
(-3.82566e-05 -6.35652e-07 0)
(-3.7308e-05 -6.54629e-07 0)
(-3.63319e-05 -6.72764e-07 0)
(-3.53293e-05 -6.90099e-07 0)
(-3.43017e-05 -7.06621e-07 0)
(-3.32507e-05 -7.2223e-07 0)
(-3.21785e-05 -7.36674e-07 0)
(-3.10869e-05 -7.49575e-07 0)
(-2.99773e-05 -7.60762e-07 0)
(-2.88514e-05 -7.7053e-07 0)
(-2.77113e-05 -7.79349e-07 0)
(-2.65591e-05 -7.87268e-07 0)
(-2.53969e-05 -7.93806e-07 0)
(-2.42268e-05 -7.98428e-07 0)
(-2.3051e-05 -8.00992e-07 0)
(-2.1872e-05 -8.01784e-07 0)
(-2.06924e-05 -8.01121e-07 0)
(-1.95146e-05 -7.99008e-07 0)
(-1.83408e-05 -7.95284e-07 0)
(-1.71736e-05 -7.8988e-07 0)
(-1.60158e-05 -7.8274e-07 0)
(-1.48704e-05 -7.73678e-07 0)
(-1.37399e-05 -7.62477e-07 0)
(-1.26269e-05 -7.4909e-07 0)
(-1.15343e-05 -7.33664e-07 0)
(-1.04654e-05 -7.16282e-07 0)
(-9.42348e-06 -6.96821e-07 0)
(-8.41126e-06 -6.75119e-07 0)
(-7.43145e-06 -6.51191e-07 0)
(-6.48705e-06 -6.2524e-07 0)
(-5.58125e-06 -5.9746e-07 0)
(-4.71712e-06 -5.67787e-07 0)
(-3.89751e-06 -5.3597e-07 0)
(-3.12504e-06 -5.01882e-07 0)
(-2.40238e-06 -4.65703e-07 0)
(-1.73235e-06 -4.27763e-07 0)
(-1.11764e-06 -3.88267e-07 0)
(-5.60386e-07 -3.47258e-07 0)
(-6.22496e-08 -3.04845e-07 0)
(3.7515e-07 -2.61287e-07 0)
(7.50144e-07 -2.16873e-07 0)
(1.06147e-06 -1.71849e-07 0)
(1.30849e-06 -1.26421e-07 0)
(1.49111e-06 -8.07806e-08 0)
(1.6098e-06 -3.52722e-08 0)
(1.66574e-06 9.47607e-09 0)
(1.66089e-06 5.25743e-08 0)
(1.59851e-06 9.28676e-08 0)
(1.48364e-06 1.28966e-07 0)
(1.3232e-06 1.59338e-07 0)
(1.12583e-06 1.82304e-07 0)
(9.02469e-07 1.9568e-07 0)
(6.67248e-07 1.96315e-07 0)
(4.37771e-07 1.80249e-07 0)
(2.34684e-07 1.43524e-07 0)
(8.33308e-08 8.44602e-08 0)
(1.21077e-08 1.43883e-08 0)
(-2.17385e-07 2.27919e-07 0)
(-3.10572e-07 -3.05282e-07 0)
(-1.89214e-07 -9.18821e-07 0)
(1.53799e-07 -9.7027e-07 0)
(5.8848e-07 -8.10868e-07 0)
(9.98409e-07 -6.29888e-07 0)
(1.35908e-06 -4.71343e-07 0)
(1.64635e-06 -3.33161e-07 0)
(1.85204e-06 -2.07811e-07 0)
(1.97041e-06 -8.62245e-08 0)
(1.99184e-06 3.41087e-08 0)
(1.91765e-06 1.58334e-07 0)
(1.73968e-06 2.82689e-07 0)
(1.45905e-06 4.10311e-07 0)
(1.07368e-06 5.388e-07 0)
(5.82947e-07 6.64957e-07 0)
(-9.43305e-09 7.9232e-07 0)
(-7.06902e-07 9.16168e-07 0)
(-1.50412e-06 1.03792e-06 0)
(-2.39779e-06 1.15745e-06 0)
(-3.3882e-06 1.27067e-06 0)
(-4.46799e-06 1.38057e-06 0)
(-5.63474e-06 1.48579e-06 0)
(-6.88671e-06 1.58431e-06 0)
(-8.2158e-06 1.67936e-06 0)
(-9.61951e-06 1.76827e-06 0)
(-1.10939e-05 1.85018e-06 0)
(-1.26315e-05 1.92768e-06 0)
(-1.42297e-05 1.99855e-06 0)
(-1.58837e-05 2.06246e-06 0)
(-1.75868e-05 2.12158e-06 0)
(-1.93358e-05 2.17412e-06 0)
(-2.11258e-05 2.21977e-06 0)
(-2.29506e-05 2.2607e-06 0)
(-2.48065e-05 2.29593e-06 0)
(-2.66887e-05 2.32433e-06 0)
(-2.85918e-05 2.34765e-06 0)
(-3.05114e-05 2.36527e-06 0)
(-3.2444e-05 2.37673e-06 0)
(-3.43844e-05 2.38353e-06 0)
(-3.63283e-05 2.38558e-06 0)
(-3.82722e-05 2.3823e-06 0)
(-4.02114e-05 2.37423e-06 0)
(-4.21417e-05 2.36178e-06 0)
(-4.40599e-05 2.34433e-06 0)
(-4.59623e-05 2.32241e-06 0)
(-4.78452e-05 2.29646e-06 0)
(-4.97054e-05 2.26604e-06 0)
(-5.15395e-05 2.23143e-06 0)
(-5.3344e-05 2.1932e-06 0)
(-5.51163e-05 2.15139e-06 0)
(-5.68537e-05 2.10619e-06 0)
(-5.8553e-05 2.05804e-06 0)
(-6.02119e-05 2.00678e-06 0)
(-6.18278e-05 1.95223e-06 0)
(-6.3398e-05 1.89489e-06 0)
(-6.49205e-05 1.83506e-06 0)
(-6.63933e-05 1.77252e-06 0)
(-6.78143e-05 1.70756e-06 0)
(-6.91816e-05 1.64047e-06 0)
(-7.0493e-05 1.57109e-06 0)
(-7.1747e-05 1.49955e-06 0)
(-7.29423e-05 1.42624e-06 0)
(-7.40772e-05 1.35147e-06 0)
(-7.51502e-05 1.27546e-06 0)
(-7.61605e-05 1.19803e-06 0)
(-7.71065e-05 1.11884e-06 0)
(-7.79868e-05 1.03809e-06 0)
(-7.88007e-05 9.56161e-07 0)
(-7.95475e-05 8.7297e-07 0)
(-8.02264e-05 7.8874e-07 0)
(-8.08366e-05 7.04099e-07 0)
(-8.1377e-05 6.19074e-07 0)
(-8.18474e-05 5.33232e-07 0)
(-8.22473e-05 4.46579e-07 0)
(-8.2576e-05 3.59591e-07 0)
(-8.28333e-05 2.72508e-07 0)
(-8.30193e-05 1.85006e-07 0)
(-8.31336e-05 9.69771e-08 0)
(-8.31759e-05 8.9503e-09 0)
(-8.3146e-05 -7.87235e-08 0)
(-8.30446e-05 -1.66312e-07 0)
(-8.28716e-05 -2.5394e-07 0)
(-8.2627e-05 -3.41152e-07 0)
(-8.2311e-05 -4.27593e-07 0)
(-8.19242e-05 -5.13529e-07 0)
(-8.14672e-05 -5.99169e-07 0)
(-8.09405e-05 -6.84204e-07 0)
(-8.03441e-05 -7.68337e-07 0)
(-7.96791e-05 -8.51595e-07 0)
(-7.89467e-05 -9.34045e-07 0)
(-7.81477e-05 -1.0155e-06 0)
(-7.72823e-05 -1.09561e-06 0)
(-7.63517e-05 -1.17427e-06 0)
(-7.53572e-05 -1.25161e-06 0)
(-7.43002e-05 -1.32768e-06 0)
(-7.31817e-05 -1.40213e-06 0)
(-7.20031e-05 -1.47457e-06 0)
(-7.0766e-05 -1.54494e-06 0)
(-6.94723e-05 -1.61337e-06 0)
(-6.81235e-05 -1.6798e-06 0)
(-6.67209e-05 -1.74398e-06 0)
(-6.52666e-05 -1.80568e-06 0)
(-6.37626e-05 -1.8649e-06 0)
(-6.22115e-05 -1.92165e-06 0)
(-6.06151e-05 -1.97567e-06 0)
(-5.89758e-05 -2.02663e-06 0)
(-5.72959e-05 -2.07442e-06 0)
(-5.55783e-05 -2.11908e-06 0)
(-5.38256e-05 -2.16056e-06 0)
(-5.20407e-05 -2.19843e-06 0)
(-5.02261e-05 -2.23231e-06 0)
(-4.83852e-05 -2.26211e-06 0)
(-4.65212e-05 -2.28807e-06 0)
(-4.46375e-05 -2.31026e-06 0)
(-4.27371e-05 -2.32833e-06 0)
(-4.08235e-05 -2.34175e-06 0)
(-3.89006e-05 -2.35034e-06 0)
(-3.69724e-05 -2.35416e-06 0)
(-3.50428e-05 -2.3532e-06 0)
(-3.31155e-05 -2.34729e-06 0)
(-3.11944e-05 -2.33627e-06 0)
(-2.92841e-05 -2.32017e-06 0)
(-2.73891e-05 -2.29897e-06 0)
(-2.55139e-05 -2.27237e-06 0)
(-2.36625e-05 -2.23991e-06 0)
(-2.18395e-05 -2.20137e-06 0)
(-2.00496e-05 -2.15688e-06 0)
(-1.82977e-05 -2.10664e-06 0)
(-1.65885e-05 -2.05057e-06 0)
(-1.49266e-05 -1.9884e-06 0)
(-1.33167e-05 -1.92006e-06 0)
(-1.17636e-05 -1.84576e-06 0)
(-1.02724e-05 -1.76575e-06 0)
(-8.8475e-06 -1.68005e-06 0)
(-7.49329e-06 -1.58854e-06 0)
(-6.21411e-06 -1.49117e-06 0)
(-5.01435e-06 -1.38827e-06 0)
(-3.89813e-06 -1.28042e-06 0)
(-2.86922e-06 -1.16807e-06 0)
(-1.931e-06 -1.05148e-06 0)
(-1.08646e-06 -9.31016e-07 0)
(-3.38278e-07 -8.07298e-07 0)
(3.11132e-07 -6.81102e-07 0)
(8.60065e-07 -5.53227e-07 0)
(1.30784e-06 -4.24494e-07 0)
(1.65478e-06 -2.95922e-07 0)
(1.90211e-06 -1.68894e-07 0)
(2.05199e-06 -4.51564e-08 0)
(2.10783e-06 7.32084e-08 0)
(2.07499e-06 1.83616e-07 0)
(1.96134e-06 2.82805e-07 0)
(1.77725e-06 3.66763e-07 0)
(1.53549e-06 4.30703e-07 0)
(1.25167e-06 4.69025e-07 0)
(9.45185e-07 4.75193e-07 0)
(6.39291e-07 4.42004e-07 0)
(3.60304e-07 3.63e-07 0)
(1.41639e-07 2.35758e-07 0)
(2.61712e-08 7.35536e-08 0)
(-1.39201e-07 4.04323e-07 0)
(-1.8717e-07 -2.70719e-07 0)
(-9.54538e-08 -1.12727e-06 0)
(1.72133e-07 -1.33028e-06 0)
(5.42983e-07 -1.22426e-06 0)
(9.241e-07 -1.02712e-06 0)
(1.26613e-06 -8.11147e-07 0)
(1.53824e-06 -5.94832e-07 0)
(1.71758e-06 -3.73257e-07 0)
(1.78767e-06 -1.48404e-07 0)
(1.7414e-06 8.61399e-08 0)
(1.56578e-06 3.25554e-07 0)
(1.25987e-06 5.71334e-07 0)
(8.18012e-07 8.2175e-07 0)
(2.35935e-07 1.07188e-06 0)
(-4.82818e-07 1.32456e-06 0)
(-1.34047e-06 1.572e-06 0)
(-2.33424e-06 1.81581e-06 0)
(-3.46104e-06 2.05585e-06 0)
(-4.71995e-06 2.28699e-06 0)
(-6.10464e-06 2.51157e-06 0)
(-7.61097e-06 2.72802e-06 0)
(-9.23529e-06 2.93259e-06 0)
(-1.09698e-05 3.12846e-06 0)
(-1.28105e-05 3.31386e-06 0)
(-1.47521e-05 3.48688e-06 0)
(-1.67862e-05 3.65e-06 0)
(-1.89079e-05 3.80134e-06 0)
(-2.11112e-05 3.93992e-06 0)
(-2.33877e-05 4.0676e-06 0)
(-2.57322e-05 4.18335e-06 0)
(-2.81387e-05 4.28619e-06 0)
(-3.05989e-05 4.37789e-06 0)
(-3.31069e-05 4.45814e-06 0)
(-3.56575e-05 4.5263e-06 0)
(-3.82428e-05 4.58365e-06 0)
(-4.08566e-05 4.63002e-06 0)
(-4.34938e-05 4.66466e-06 0)
(-4.6147e-05 4.68852e-06 0)
(-4.88106e-05 4.70225e-06 0)
(-5.14798e-05 4.70537e-06 0)
(-5.41479e-05 4.69887e-06 0)
(-5.68097e-05 4.68322e-06 0)
(-5.94601e-05 4.65807e-06 0)
(-6.20935e-05 4.62382e-06 0)
(-6.47048e-05 4.58103e-06 0)
(-6.72898e-05 4.52965e-06 0)
(-6.98438e-05 4.47024e-06 0)
(-7.23618e-05 4.40334e-06 0)
(-7.48398e-05 4.32881e-06 0)
(-7.72737e-05 4.24688e-06 0)
(-7.96589e-05 4.15817e-06 0)
(-8.19921e-05 4.06289e-06 0)
(-8.42702e-05 3.96129e-06 0)
(-8.64892e-05 3.85386e-06 0)
(-8.86459e-05 3.74103e-06 0)
(-9.07376e-05 3.62294e-06 0)
(-9.2761e-05 3.49966e-06 0)
(-9.47132e-05 3.37174e-06 0)
(-9.65917e-05 3.23963e-06 0)
(-9.83941e-05 3.10327e-06 0)
(-0.000100118 2.96271e-06 0)
(-0.000101761 2.81836e-06 0)
(-0.00010332 2.67052e-06 0)
(-0.000104795 2.51938e-06 0)
(-0.000106183 2.36536e-06 0)
(-0.000107484 2.20888e-06 0)
(-0.000108694 2.05002e-06 0)
(-0.000109814 1.88865e-06 0)
(-0.000110841 1.72476e-06 0)
(-0.000111775 1.55884e-06 0)
(-0.000112613 1.39149e-06 0)
(-0.000113357 1.22278e-06 0)
(-0.000114004 1.05272e-06 0)
(-0.000114555 8.81703e-07 0)
(-0.000115007 7.09948e-07 0)
(-0.000115362 5.37371e-07 0)
(-0.000115618 3.64076e-07 0)
(-0.000115776 1.90465e-07 0)
(-0.000115835 1.68729e-08 0)
(-0.000115794 -1.56701e-07 0)
(-0.000115656 -3.30246e-07 0)
(-0.000115419 -5.03403e-07 0)
(-0.000115083 -6.75749e-07 0)
(-0.000114649 -8.47159e-07 0)
(-0.000114119 -1.01768e-06 0)
(-0.000113491 -1.18706e-06 0)
(-0.000112768 -1.35487e-06 0)
(-0.000111949 -1.52107e-06 0)
(-0.000111035 -1.68592e-06 0)
(-0.000110029 -1.84914e-06 0)
(-0.00010893 -2.01011e-06 0)
(-0.000107741 -2.1684e-06 0)
(-0.000106463 -2.32399e-06 0)
(-0.000105097 -2.47688e-06 0)
(-0.000103645 -2.62684e-06 0)
(-0.000102108 -2.77356e-06 0)
(-0.000100488 -2.91687e-06 0)
(-9.87883e-05 -3.0566e-06 0)
(-9.70105e-05 -3.19236e-06 0)
(-9.51571e-05 -3.32368e-06 0)
(-9.32301e-05 -3.45028e-06 0)
(-9.12321e-05 -3.57215e-06 0)
(-8.91659e-05 -3.68933e-06 0)
(-8.70344e-05 -3.80157e-06 0)
(-8.48406e-05 -3.90833e-06 0)
(-8.25878e-05 -4.00911e-06 0)
(-8.02797e-05 -4.10368e-06 0)
(-7.79199e-05 -4.19188e-06 0)
(-7.5512e-05 -4.27347e-06 0)
(-7.30592e-05 -4.34808e-06 0)
(-7.05655e-05 -4.41537e-06 0)
(-6.80355e-05 -4.47518e-06 0)
(-6.54738e-05 -4.52722e-06 0)
(-6.2885e-05 -4.57107e-06 0)
(-6.02732e-05 -4.60637e-06 0)
(-5.76432e-05 -4.63287e-06 0)
(-5.50002e-05 -4.65044e-06 0)
(-5.23496e-05 -4.65885e-06 0)
(-4.96964e-05 -4.6577e-06 0)
(-4.7046e-05 -4.64656e-06 0)
(-4.44041e-05 -4.62528e-06 0)
(-4.17766e-05 -4.59389e-06 0)
(-3.91695e-05 -4.55224e-06 0)
(-3.65885e-05 -4.49983e-06 0)
(-3.40397e-05 -4.43616e-06 0)
(-3.15291e-05 -4.36107e-06 0)
(-2.90635e-05 -4.27456e-06 0)
(-2.6649e-05 -4.17662e-06 0)
(-2.42918e-05 -4.06717e-06 0)
(-2.1998e-05 -3.94605e-06 0)
(-1.9774e-05 -3.81328e-06 0)
(-1.76267e-05 -3.66905e-06 0)
(-1.55624e-05 -3.51352e-06 0)
(-1.3587e-05 -3.34674e-06 0)
(-1.17063e-05 -3.16885e-06 0)
(-9.92615e-06 -2.98016e-06 0)
(-8.25233e-06 -2.78121e-06 0)
(-6.69024e-06 -2.57265e-06 0)
(-5.24465e-06 -2.35525e-06 0)
(-3.91988e-06 -2.12975e-06 0)
(-2.71989e-06 -1.89709e-06 0)
(-1.64831e-06 -1.65847e-06 0)
(-7.08113e-07 -1.4153e-06 0)
(9.88966e-08 -1.16913e-06 0)
(7.72102e-07 -9.21681e-07 0)
(1.31191e-06 -6.75057e-07 0)
(1.72007e-06 -4.32085e-07 0)
(1.99996e-06 -1.96306e-07 0)
(2.15656e-06 2.83323e-08 0)
(2.19682e-06 2.37382e-07 0)
(2.13043e-06 4.25378e-07 0)
(1.97018e-06 5.85425e-07 0)
(1.7319e-06 7.09159e-07 0)
(1.43475e-06 7.87056e-07 0)
(1.10168e-06 8.08757e-07 0)
(7.59479e-07 7.63483e-07 0)
(4.38162e-07 6.41477e-07 0)
(1.77771e-07 4.37595e-07 0)
(3.4402e-08 1.59871e-07 0)
(-5.09991e-08 4.87657e-07 0)
(-3.99069e-09 -2.74983e-07 0)
(1.16978e-07 -1.2897e-06 0)
(3.45755e-07 -1.61934e-06 0)
(6.56407e-07 -1.56541e-06 0)
(9.71977e-07 -1.36059e-06 0)
(1.24729e-06 -1.09247e-06 0)
(1.4448e-06 -7.88122e-07 0)
(1.53713e-06 -4.62598e-07 0)
(1.50604e-06 -1.12057e-07 0)
(1.33284e-06 2.54845e-07 0)
(1.01015e-06 6.38058e-07 0)
(5.29995e-07 1.0333e-06 0)
(-1.15371e-07 1.43297e-06 0)
(-9.25383e-07 1.83934e-06 0)
(-1.90491e-06 2.24376e-06 0)
(-3.05236e-06 2.64518e-06 0)
(-4.3638e-06 3.04116e-06 0)
(-5.84034e-06 3.42684e-06 0)
(-7.47545e-06 3.80224e-06 0)
(-9.26464e-06 4.16618e-06 0)
(-1.12052e-05 4.51474e-06 0)
(-1.32882e-05 4.84892e-06 0)
(-1.55077e-05 5.16693e-06 0)
(-1.78585e-05 5.46633e-06 0)
(-2.03313e-05 5.74887e-06 0)
(-2.29192e-05 6.01327e-06 0)
(-2.56156e-05 6.25788e-06 0)
(-2.84112e-05 6.4844e-06 0)
(-3.12981e-05 6.69195e-06 0)
(-3.42695e-05 6.87911e-06 0)
(-3.73164e-05 7.04792e-06 0)
(-4.043e-05 7.19766e-06 0)
(-4.36035e-05 7.32756e-06 0)
(-4.68282e-05 7.43906e-06 0)
(-5.00957e-05 7.53243e-06 0)
(-5.33995e-05 7.60703e-06 0)
(-5.67312e-05 7.66407e-06 0)
(-6.00828e-05 7.70392e-06 0)
(-6.34478e-05 7.72601e-06 0)
(-6.68184e-05 7.7316e-06 0)
(-7.01873e-05 7.72108e-06 0)
(-7.35482e-05 7.6947e-06 0)
(-7.68943e-05 7.65323e-06 0)
(-8.02188e-05 7.59719e-06 0)
(-8.35157e-05 7.52665e-06 0)
(-8.6779e-05 7.44219e-06 0)
(-9.00026e-05 7.34476e-06 0)
(-9.31813e-05 7.23472e-06 0)
(-9.63098e-05 7.11243e-06 0)
(-9.93825e-05 6.97871e-06 0)
(-0.000102394 6.8338e-06 0)
(-0.000105341 6.67773e-06 0)
(-0.000108217 6.51134e-06 0)
(-0.000111019 6.33531e-06 0)
(-0.000113742 6.14997e-06 0)
(-0.000116384 5.95586e-06 0)
(-0.000118939 5.75356e-06 0)
(-0.000121404 5.54347e-06 0)
(-0.000123776 5.32606e-06 0)
(-0.000126053 5.10178e-06 0)
(-0.00012823 4.87116e-06 0)
(-0.000130306 4.63466e-06 0)
(-0.000132277 4.39233e-06 0)
(-0.00013414 4.14409e-06 0)
(-0.000135895 3.89068e-06 0)
(-0.000137538 3.63299e-06 0)
(-0.000139067 3.37123e-06 0)
(-0.000140483 3.10561e-06 0)
(-0.000141781 2.83664e-06 0)
(-0.000142962 2.56467e-06 0)
(-0.000144022 2.28974e-06 0)
(-0.000144963 2.01205e-06 0)
(-0.000145782 1.73224e-06 0)
(-0.000146478 1.45098e-06 0)
(-0.000147051 1.1683e-06 0)
(-0.0001475 8.84113e-07 0)
(-0.000147825 5.99014e-07 0)
(-0.000148025 3.13653e-07 0)
(-0.000148101 2.81393e-08 0)
(-0.000148052 -2.57562e-07 0)
(-0.000147878 -5.43003e-07 0)
(-0.000147579 -8.27534e-07 0)
(-0.000147157 -1.11095e-06 0)
(-0.00014661 -1.39326e-06 0)
(-0.000145941 -1.67413e-06 0)
(-0.000145149 -1.95293e-06 0)
(-0.000144236 -2.22916e-06 0)
(-0.000143203 -2.50278e-06 0)
(-0.000142051 -2.77385e-06 0)
(-0.000140781 -3.04193e-06 0)
(-0.000139394 -3.30639e-06 0)
(-0.000137893 -3.56692e-06 0)
(-0.00013628 -3.82332e-06 0)
(-0.000134555 -4.07509e-06 0)
(-0.000132722 -4.32163e-06 0)
(-0.000130782 -4.56257e-06 0)
(-0.000128738 -4.7979e-06 0)
(-0.000126592 -5.02751e-06 0)
(-0.000124348 -5.25083e-06 0)
(-0.000122008 -5.46709e-06 0)
(-0.000119575 -5.67573e-06 0)
(-0.000117053 -5.87648e-06 0)
(-0.000114445 -6.06911e-06 0)
(-0.000111754 -6.25326e-06 0)
(-0.000108985 -6.4284e-06 0)
(-0.000106141 -6.59412e-06 0)
(-0.000103227 -6.75001e-06 0)
(-0.000100247 -6.89542e-06 0)
(-9.72072e-05 -7.0296e-06 0)
(-9.41106e-05 -7.1521e-06 0)
(-9.09624e-05 -7.26276e-06 0)
(-8.77683e-05 -7.36138e-06 0)
(-8.45339e-05 -7.44743e-06 0)
(-8.12645e-05 -7.52005e-06 0)
(-7.79661e-05 -7.57855e-06 0)
(-7.46448e-05 -7.62263e-06 0)
(-7.1307e-05 -7.65209e-06 0)
(-6.7959e-05 -7.6665e-06 0)
(-6.46072e-05 -7.66522e-06 0)
(-6.12583e-05 -7.64777e-06 0)
(-5.79197e-05 -7.61388e-06 0)
(-5.45987e-05 -7.56326e-06 0)
(-5.13027e-05 -7.49548e-06 0)
(-4.80387e-05 -7.41007e-06 0)
(-4.48141e-05 -7.30663e-06 0)
(-4.1637e-05 -7.185e-06 0)
(-3.85152e-05 -7.04504e-06 0)
(-3.54566e-05 -6.88642e-06 0)
(-3.24686e-05 -6.70889e-06 0)
(-2.95591e-05 -6.5125e-06 0)
(-2.67359e-05 -6.29748e-06 0)
(-2.40072e-05 -6.06406e-06 0)
(-2.13807e-05 -5.81235e-06 0)
(-1.88637e-05 -5.5425e-06 0)
(-1.64634e-05 -5.2549e-06 0)
(-1.4187e-05 -4.95025e-06 0)
(-1.20413e-05 -4.6294e-06 0)
(-1.0033e-05 -4.29323e-06 0)
(-8.16756e-06 -3.94285e-06 0)
(-6.45035e-06 -3.5796e-06 0)
(-4.88618e-06 -3.20515e-06 0)
(-3.47922e-06 -2.82149e-06 0)
(-2.23275e-06 -2.43088e-06 0)
(-1.14874e-06 -2.03589e-06 0)
(-2.2773e-07 -1.63949e-06 0)
(5.30882e-07 -1.24513e-06 0)
(1.12905e-06 -8.57103e-07 0)
(1.57081e-06 -4.80794e-07 0)
(1.86253e-06 -1.22553e-07 0)
(2.01283e-06 2.10505e-07 0)
(2.03293e-06 5.10204e-07 0)
(1.93698e-06 7.66751e-07 0)
(1.74264e-06 9.68446e-07 0)
(1.47143e-06 1.1019e-06 0)
(1.14895e-06 1.15254e-06 0)
(8.04528e-07 1.10534e-06 0)
(4.7105e-07 9.46171e-07 0)
(1.93769e-07 6.64862e-07 0)
(3.79739e-08 2.60007e-07 0)
(3.86815e-09 4.51752e-07 0)
(1.19119e-07 -3.71604e-07 0)
(2.73112e-07 -1.46863e-06 0)
(4.77727e-07 -1.86889e-06 0)
(7.27079e-07 -1.84492e-06 0)
(9.63169e-07 -1.6189e-06 0)
(1.14597e-06 -1.28424e-06 0)
(1.23469e-06 -8.84687e-07 0)
(1.2041e-06 -4.32489e-07 0)
(1.03074e-06 5.70554e-08 0)
(6.97579e-07 5.80293e-07 0)
(1.92307e-07 1.13058e-06 0)
(-4.96572e-07 1.69701e-06 0)
(-1.37086e-06 2.27787e-06 0)
(-2.43823e-06 2.86305e-06 0)
(-3.70035e-06 3.44892e-06 0)
(-5.15468e-06 4.03212e-06 0)
(-6.80309e-06 4.60538e-06 0)
(-8.64038e-06 5.16668e-06 0)
(-1.06618e-05 5.71379e-06 0)
(-1.28644e-05 6.24125e-06 0)
(-1.5241e-05 6.74947e-06 0)
(-1.77844e-05 7.2366e-06 0)
(-2.04887e-05 7.69876e-06 0)
(-2.33447e-05 8.13681e-06 0)
(-2.63437e-05 8.54958e-06 0)
(-2.94786e-05 8.9344e-06 0)
(-3.27391e-05 9.2927e-06 0)
(-3.61158e-05 9.62384e-06 0)
(-3.9601e-05 9.92594e-06 0)
(-4.31839e-05 1.02002e-05 0)
(-4.68549e-05 1.04471e-05 0)
(-5.06059e-05 1.06655e-05 0)
(-5.44259e-05 1.0856e-05 0)
(-5.83058e-05 1.10196e-05 0)
(-6.22368e-05 1.11554e-05 0)
(-6.62091e-05 1.12645e-05 0)
(-7.02138e-05 1.13478e-05 0)
(-7.42424e-05 1.14052e-05 0)
(-7.82858e-05 1.14374e-05 0)
(-8.23354e-05 1.14455e-05 0)
(-8.63828e-05 1.14296e-05 0)
(-9.04198e-05 1.13904e-05 0)
(-9.44385e-05 1.1329e-05 0)
(-9.84314e-05 1.12459e-05 0)
(-0.000102391 1.11416e-05 0)
(-0.00010631 1.10171e-05 0)
(-0.000110181 1.0873e-05 0)
(-0.000113998 1.07099e-05 0)
(-0.000117755 1.05288e-05 0)
(-0.000121444 1.03307e-05 0)
(-0.000125061 1.01161e-05 0)
(-0.0001286 9.88558e-06 0)
(-0.000132054 9.64003e-06 0)
(-0.000135419 9.38012e-06 0)
(-0.00013869 9.10627e-06 0)
(-0.000141862 8.81947e-06 0)
(-0.000144931 8.52061e-06 0)
(-0.000147893 8.21003e-06 0)
(-0.000150742 7.88826e-06 0)
(-0.000153477 7.55611e-06 0)
(-0.000156092 7.21443e-06 0)
(-0.000158585 6.86396e-06 0)
(-0.000160954 6.50514e-06 0)
(-0.000163193 6.13823e-06 0)
(-0.000165301 5.76388e-06 0)
(-0.000167276 5.3827e-06 0)
(-0.000169115 4.99495e-06 0)
(-0.000170816 4.60132e-06 0)
(-0.000172376 4.20291e-06 0)
(-0.000173795 3.80011e-06 0)
(-0.000175071 3.39294e-06 0)
(-0.000176202 2.98188e-06 0)
(-0.000177186 2.56778e-06 0)
(-0.000178024 2.15118e-06 0)
(-0.000178714 1.73222e-06 0)
(-0.000179255 1.31125e-06 0)
(-0.000179646 8.89123e-07 0)
(-0.000179888 4.66387e-07 0)
(-0.00017998 4.31689e-08 0)
(-0.000179923 -3.80181e-07 0)
(-0.000179715 -8.02885e-07 0)
(-0.000179358 -1.2243e-06 0)
(-0.000178851 -1.64424e-06 0)
(-0.000178197 -2.06249e-06 0)
(-0.000177394 -2.4784e-06 0)
(-0.000176444 -2.89134e-06 0)
(-0.000175349 -3.30091e-06 0)
(-0.000174109 -3.70678e-06 0)
(-0.000172726 -4.10846e-06 0)
(-0.000171202 -4.50528e-06 0)
(-0.000169538 -4.89667e-06 0)
(-0.000167736 -5.2824e-06 0)
(-0.000165799 -5.66212e-06 0)
(-0.000163729 -6.03507e-06 0)
(-0.000161528 -6.40045e-06 0)
(-0.000159199 -6.75768e-06 0)
(-0.000156745 -7.10639e-06 0)
(-0.00015417 -7.44616e-06 0)
(-0.000151476 -7.77635e-06 0)
(-0.000148666 -8.09631e-06 0)
(-0.000145745 -8.40547e-06 0)
(-0.000142717 -8.70324e-06 0)
(-0.000139586 -8.98884e-06 0)
(-0.000136355 -9.2615e-06 0)
(-0.000133031 -9.52062e-06 0)
(-0.000129616 -9.76578e-06 0)
(-0.000126118 -9.9965e-06 0)
(-0.000122541 -1.0212e-05 0)
(-0.00011889 -1.0411e-05 0)
(-0.000115172 -1.05929e-05 0)
(-0.000111392 -1.07572e-05 0)
(-0.000107557 -1.09035e-05 0)
(-0.000103673 -1.1031e-05 0)
(-9.97462e-05 -1.11388e-05 0)
(-9.57846e-05 -1.12261e-05 0)
(-9.17953e-05 -1.12924e-05 0)
(-8.77858e-05 -1.1337e-05 0)
(-8.37635e-05 -1.13592e-05 0)
(-7.97361e-05 -1.13582e-05 0)
(-7.57117e-05 -1.13335e-05 0)
(-7.16989e-05 -1.12848e-05 0)
(-6.77063e-05 -1.12115e-05 0)
(-6.37425e-05 -1.11128e-05 0)
(-5.9816e-05 -1.0988e-05 0)
(-5.59358e-05 -1.0837e-05 0)
(-5.21113e-05 -1.06595e-05 0)
(-4.83515e-05 -1.04552e-05 0)
(-4.46655e-05 -1.02238e-05 0)
(-4.10624e-05 -9.96483e-06 0)
(-3.75514e-05 -9.67842e-06 0)
(-3.4142e-05 -9.36486e-06 0)
(-3.08434e-05 -9.02448e-06 0)
(-2.76643e-05 -8.6575e-06 0)
(-2.46135e-05 -8.26427e-06 0)
(-2.16994e-05 -7.84546e-06 0)
(-1.89304e-05 -7.40217e-06 0)
(-1.63144e-05 -6.93565e-06 0)
(-1.38587e-05 -6.44717e-06 0)
(-1.157e-05 -5.93829e-06 0)
(-9.45436e-06 -5.41107e-06 0)
(-7.5172e-06 -4.86801e-06 0)
(-5.76328e-06 -4.31196e-06 0)
(-4.19619e-06 -3.74618e-06 0)
(-2.81794e-06 -3.17446e-06 0)
(-1.629e-06 -2.6013e-06 0)
(-6.28601e-07 -2.03194e-06 0)
(1.85456e-07 -1.47249e-06 0)
(8.17587e-07 -9.301e-07 0)
(1.2749e-06 -4.13344e-07 0)
(1.56719e-06 6.77807e-08 0)
(1.70688e-06 5.01808e-07 0)
(1.70933e-06 8.75595e-07 0)
(1.59334e-06 1.17406e-06 0)
(1.3818e-06 1.3801e-06 0)
(1.10193e-06 1.47497e-06 0)
(7.84947e-07 1.43885e-06 0)
(4.65976e-07 1.25218e-06 0)
(1.93659e-07 8.98069e-07 0)
(3.82641e-08 3.64002e-07 0)
(3.29883e-08 3.5632e-07 0)
(1.78837e-07 -5.24196e-07 0)
(3.44936e-07 -1.64482e-06 0)
(5.19577e-07 -2.07643e-06 0)
(6.99522e-07 -2.05029e-06 0)
(8.4506e-07 -1.78001e-06 0)
(9.13323e-07 -1.36542e-06 0)
(8.72174e-07 -8.48977e-07 0)
(6.91397e-07 -2.57555e-07 0)
(3.48636e-07 3.93897e-07 0)
(-1.71898e-07 1.09441e-06 0)
(-8.88337e-07 1.82995e-06 0)
(-1.80664e-06 2.59523e-06 0)
(-2.93645e-06 3.3772e-06 0)
(-4.28167e-06 4.16715e-06 0)
(-5.84259e-06 4.96068e-06 0)
(-7.62299e-06 5.74787e-06 0)
(-9.61889e-06 6.5243e-06 0)
(-1.18272e-05 7.28652e-06 0)
(-1.4245e-05 8.02731e-06 0)
(-1.68652e-05 8.74426e-06 0)
(-1.9681e-05 9.43547e-06 0)
(-2.26869e-05 1.00959e-05 0)
(-2.58732e-05 1.0725e-05 0)
(-2.92305e-05 1.13217e-05 0)
(-3.27514e-05 1.18822e-05 0)
(-3.64248e-05 1.24072e-05 0)
(-4.02398e-05 1.28959e-05 0)
(-4.41884e-05 1.33462e-05 0)
(-4.82587e-05 1.37587e-05 0)
(-5.24392e-05 1.41334e-05 0)
(-5.67209e-05 1.44692e-05 0)
(-6.10921e-05 1.4767e-05 0)
(-6.55415e-05 1.50274e-05 0)
(-7.00594e-05 1.52498e-05 0)
(-7.46347e-05 1.54352e-05 0)
(-7.92564e-05 1.55842e-05 0)
(-8.39148e-05 1.5697e-05 0)
(-8.85995e-05 1.57745e-05 0)
(-9.33003e-05 1.58179e-05 0)
(-9.80077e-05 1.58275e-05 0)
(-0.000102712 1.58046e-05 0)
(-0.000107403 1.57499e-05 0)
(-0.000112073 1.56643e-05 0)
(-0.000116712 1.55487e-05 0)
(-0.000121313 1.54045e-05 0)
(-0.000125866 1.52324e-05 0)
(-0.000130363 1.50332e-05 0)