/*--------------------------------*- C++ -*----------------------------------*\
  =========                 |
  \\      /  F ield         | OpenFOAM: The Open Source CFD Toolbox
   \\    /   O peration     | Website:  https://openfoam.org
    \\  /    A nd           | Version:  7
     \\/     M anipulation  |
\*---------------------------------------------------------------------------*/
FoamFile
{
    version     2.0;
    format      ascii;
    class       volScalarField;
    location    "0.25";
    object      p;
}
// * * * * * * * * * * * * * * * * * * * * * * * * * * * * * * * * * * * * * //

dimensions      [0 2 -2 0 0 0 0];

internalField   nonuniform List<scalar> 
51200
(
8.36301e-07
1.17406e-06
9.11647e-07
5.9585e-07
3.13468e-07
-3.00162e-08
-4.56148e-07
-9.54186e-07
-1.51054e-06
-2.13718e-06
-2.84207e-06
-3.61946e-06
-4.4636e-06
-5.36888e-06
-6.33051e-06
-7.34536e-06
-8.41116e-06
-9.52255e-06
-1.06765e-05
-1.18669e-05
-1.30865e-05
-1.43323e-05
-1.56004e-05
-1.68875e-05
-1.81917e-05
-1.95083e-05
-2.08312e-05
-2.21576e-05
-2.34883e-05
-2.48228e-05
-2.61542e-05
-2.74751e-05
-2.87792e-05
-3.00601e-05
-3.13199e-05
-3.25662e-05
-3.38031e-05
-3.5029e-05
-3.62388e-05
-3.7426e-05
-3.85862e-05
-3.97192e-05
-4.08279e-05
-4.19154e-05
-4.29822e-05
-4.40264e-05
-4.50437e-05
-4.60308e-05
-4.69871e-05
-4.79139e-05
-4.88125e-05
-4.9684e-05
-5.05292e-05
-5.13495e-05
-5.21449e-05
-5.29142e-05
-5.36575e-05
-5.43757e-05
-5.50688e-05
-5.57362e-05
-5.63783e-05
-5.69961e-05
-5.75915e-05
-5.81662e-05
-5.87197e-05
-5.92525e-05
-5.97667e-05
-6.02656e-05
-6.07512e-05
-6.12231e-05
-6.16804e-05
-6.2124e-05
-6.25557e-05
-6.29775e-05
-6.33903e-05
-6.37945e-05
-6.41907e-05
-6.458e-05
-6.49633e-05
-6.53418e-05
-6.57179e-05
-6.60948e-05
-6.64741e-05
-6.68557e-05
-6.72398e-05
-6.76277e-05
-6.80218e-05
-6.84251e-05
-6.88392e-05
-6.92646e-05
-6.97022e-05
-7.01521e-05
-7.06146e-05
-7.10915e-05
-7.15852e-05
-7.20967e-05
-7.26266e-05
-7.31753e-05
-7.37444e-05
-7.43367e-05
-7.49539e-05
-7.55951e-05
-7.62588e-05
-7.69445e-05
-7.76537e-05
-7.83891e-05
-7.9153e-05
-7.99463e-05
-8.07691e-05
-8.16208e-05
-8.25007e-05
-8.34077e-05
-8.43418e-05
-8.53035e-05
-8.62936e-05
-8.73113e-05
-8.83558e-05
-8.94268e-05
-9.05237e-05
-9.16453e-05
-9.27889e-05
-9.39522e-05
-9.51338e-05
-9.63336e-05
-9.75507e-05
-9.87831e-05
-0.000100028
-0.000101283
-0.000102545
-0.000103814
-0.000105085
-0.000106358
-0.000107629
-0.000108897
-0.000110157
-0.000111404
-0.000112634
-0.000113842
-0.000115024
-0.000116177
-0.000117295
-0.000118372
-0.000119403
-0.000120383
-0.000121308
-0.000122173
-0.000122975
-0.000123707
-0.000124359
-0.000124924
-0.000125397
-0.000125775
-0.000126057
-0.00012624
-0.000126325
-0.000126319
-0.000126231
-0.000126086
-0.000125922
-0.000125797
9.2647e-07
8.09501e-07
5.43763e-07
2.64736e-07
-1.29769e-08
-3.48594e-07
-7.69121e-07
-1.26143e-06
-1.81263e-06
-2.42326e-06
-3.0984e-06
-3.84057e-06
-4.64471e-06
-5.50773e-06
-6.42517e-06
-7.39116e-06
-8.4031e-06
-9.46085e-06
-1.05594e-05
-1.16957e-05
-1.28656e-05
-1.40603e-05
-1.52767e-05
-1.65123e-05
-1.77644e-05
-1.90312e-05
-2.03081e-05
-2.15885e-05
-2.28702e-05
-2.41524e-05
-2.54331e-05
-2.67113e-05
-2.79834e-05
-2.92417e-05
-3.0483e-05
-3.1708e-05
-3.29174e-05
-3.41133e-05
-3.52963e-05
-3.64631e-05
-3.76108e-05
-3.87371e-05
-3.98412e-05
-4.09232e-05
-4.19837e-05
-4.30234e-05
-4.40404e-05
-4.50311e-05
-4.59947e-05
-4.69315e-05
-4.78415e-05
-4.87259e-05
-4.95863e-05
-5.0424e-05
-5.12391e-05
-5.20307e-05
-5.27983e-05
-5.35422e-05
-5.42624e-05
-5.49585e-05
-5.56305e-05
-5.62792e-05
-5.69068e-05
-5.75154e-05
-5.81052e-05
-5.86762e-05
-5.92295e-05
-5.97673e-05
-6.0292e-05
-6.08041e-05
-6.13031e-05
-6.17891e-05
-6.22635e-05
-6.27275e-05
-6.31825e-05
-6.36296e-05
-6.40704e-05
-6.45061e-05
-6.49367e-05
-6.53616e-05
-6.5782e-05
-6.62014e-05
-6.66236e-05
-6.70496e-05
-6.74788e-05
-6.79109e-05
-6.83473e-05
-6.8792e-05
-6.92481e-05
-6.97153e-05
-7.01929e-05
-7.06808e-05
-7.11801e-05
-7.16935e-05
-7.22229e-05
-7.27688e-05
-7.33313e-05
-7.39115e-05
-7.45111e-05
-7.51326e-05
-7.57774e-05
-7.64444e-05
-7.71316e-05
-7.78384e-05
-7.85666e-05
-7.93199e-05
-8.01006e-05
-8.09091e-05
-8.1744e-05
-8.26047e-05
-8.3491e-05
-8.4403e-05
-8.53404e-05
-8.6303e-05
-8.72908e-05
-8.83036e-05
-8.93407e-05
-9.04018e-05
-9.14863e-05
-9.25927e-05
-9.37187e-05
-9.48618e-05
-9.60209e-05
-9.71955e-05
-9.83852e-05
-9.9588e-05
-0.000100801
-0.00010202
-0.000103245
-0.000104473
-0.000105704
-0.000106935
-0.000108162
-0.000109382
-0.000110592
-0.000111788
-0.000112966
-0.000114123
-0.000115254
-0.000116354
-0.000117418
-0.00011844
-0.000119418
-0.000120347
-0.000121223
-0.000122042
-0.0001228
-0.00012349
-0.000124107
-0.000124643
-0.000125094
-0.000125458
-0.000125736
-0.000125928
-0.000126036
-0.000126063
-0.000126021
-0.000125928
-0.000125805
-0.00012568
3.49727e-07
3.24683e-07
1.9868e-07
-5.37655e-09
-2.60976e-07
-5.80505e-07
-9.82488e-07
-1.46226e-06
-2.00443e-06
-2.60056e-06
-3.25521e-06
-3.96913e-06
-4.7406e-06
-5.56852e-06
-6.44903e-06
-7.37703e-06
-8.35098e-06
-9.36659e-06
-1.04208e-05
-1.15133e-05
-1.26388e-05
-1.37921e-05
-1.49688e-05
-1.6163e-05
-1.73739e-05
-1.86005e-05
-1.98389e-05
-2.10852e-05
-2.23332e-05
-2.35785e-05
-2.48211e-05
-2.60615e-05
-2.72995e-05
-2.85328e-05
-2.97563e-05
-3.09654e-05
-3.21577e-05
-3.33341e-05
-3.44962e-05
-3.56443e-05
-3.67781e-05
-3.78958e-05
-3.89953e-05
-4.00749e-05
-4.11335e-05
-4.21712e-05
-4.31872e-05
-4.41797e-05
-4.51482e-05
-4.60924e-05
-4.70115e-05
-4.7907e-05
-4.87808e-05
-4.9633e-05
-5.0464e-05
-5.12729e-05
-5.20593e-05
-5.28237e-05
-5.35669e-05
-5.42884e-05
-5.49872e-05
-5.56636e-05
-5.6319e-05
-5.69554e-05
-5.75741e-05
-5.81761e-05
-5.87621e-05
-5.93327e-05
-5.989e-05
-6.04355e-05
-6.09697e-05
-6.14931e-05
-6.20057e-05
-6.25073e-05
-6.29984e-05
-6.34808e-05
-6.39573e-05
-6.44302e-05
-6.48999e-05
-6.53651e-05
-6.58258e-05
-6.6284e-05
-6.67436e-05
-6.72063e-05
-6.76717e-05
-6.81402e-05
-6.86135e-05
-6.90952e-05
-6.95882e-05
-7.00915e-05
-7.06029e-05
-7.11231e-05
-7.16545e-05
-7.21999e-05
-7.27607e-05
-7.33362e-05
-7.39263e-05
-7.45334e-05
-7.516e-05
-7.58078e-05
-7.64774e-05
-7.7167e-05
-7.78745e-05
-7.85996e-05
-7.93448e-05
-8.0114e-05
-8.09098e-05
-8.17322e-05
-8.25788e-05
-8.34481e-05
-8.43407e-05
-8.52576e-05
-8.61988e-05
-8.71631e-05
-8.81499e-05
-8.91591e-05
-9.0191e-05
-9.12453e-05
-9.23209e-05
-9.34155e-05
-9.45269e-05
-9.56534e-05
-9.67941e-05
-9.79488e-05
-9.9117e-05
-0.000100297
-0.000101484
-0.000102676
-0.00010387
-0.000105066
-0.000106264
-0.000107462
-0.000108655
-0.000109838
-0.000111008
-0.000112163
-0.0001133
-0.000114416
-0.000115507
-0.000116566
-0.000117587
-0.000118566
-0.000119501
-0.000120389
-0.000121228
-0.000122013
-0.000122737
-0.000123397
-0.000123986
-0.0001245
-0.000124934
-0.000125288
-0.000125563
-0.00012576
-0.000125881
-0.000125926
-0.000125904
-0.000125829
-0.000125706
-0.000125539
-2.41514e-07
-1.02212e-07
-9.55417e-08
-2.24711e-07
-4.5253e-07
-7.58376e-07
-1.13899e-06
-1.59626e-06
-2.11771e-06
-2.6973e-06
-3.33288e-06
-4.02448e-06
-4.77092e-06
-5.56892e-06
-6.41661e-06
-7.31307e-06
-8.25417e-06
-9.23694e-06
-1.02585e-05
-1.13141e-05
-1.24012e-05
-1.35176e-05
-1.46577e-05
-1.58175e-05
-1.69946e-05
-1.81857e-05
-1.939e-05
-2.06056e-05
-2.1826e-05
-2.30469e-05
-2.42657e-05
-2.54785e-05
-2.66866e-05
-2.78917e-05
-2.90916e-05
-3.02828e-05
-3.14618e-05
-3.26264e-05
-3.37763e-05
-3.49114e-05
-3.60324e-05
-3.71397e-05
-3.82319e-05
-3.93081e-05
-4.03661e-05
-4.14035e-05
-4.24193e-05
-4.34132e-05
-4.43849e-05
-4.53344e-05
-4.62612e-05
-4.71667e-05
-4.80522e-05
-4.89176e-05
-4.97631e-05
-5.0588e-05
-5.13916e-05
-5.21741e-05
-5.29361e-05
-5.36776e-05
-5.43989e-05
-5.51003e-05
-5.57817e-05
-5.64437e-05
-5.70882e-05
-5.77173e-05
-5.83324e-05
-5.89335e-05
-5.95209e-05
-6.00959e-05
-6.06598e-05
-6.1214e-05
-6.17589e-05
-6.2294e-05
-6.28194e-05
-6.33366e-05
-6.38473e-05
-6.43531e-05
-6.48549e-05
-6.53534e-05
-6.58495e-05
-6.63445e-05
-6.68399e-05
-6.73367e-05
-6.78349e-05
-6.83358e-05
-6.88424e-05
-6.93577e-05
-6.98835e-05
-7.04187e-05
-7.09609e-05
-7.15113e-05
-7.20728e-05
-7.26478e-05
-7.32369e-05
-7.38391e-05
-7.44547e-05
-7.50867e-05
-7.57385e-05
-7.64112e-05
-7.71037e-05
-7.78138e-05
-7.854e-05
-7.92829e-05
-8.00452e-05
-8.08302e-05
-8.16401e-05
-8.2475e-05
-8.3333e-05
-8.4212e-05
-8.51121e-05
-8.60346e-05
-8.69798e-05
-8.79465e-05
-8.89334e-05
-8.99407e-05
-9.09691e-05
-9.20185e-05
-9.30871e-05
-9.41724e-05
-9.52721e-05
-9.63853e-05
-9.75116e-05
-9.86504e-05
-9.98005e-05
-0.00010096
-0.000102127
-0.000103296
-0.000104467
-0.000105637
-0.000106808
-0.000107978
-0.000109142
-0.000110295
-0.000111433
-0.000112555
-0.000113658
-0.000114741
-0.000115797
-0.000116822
-0.000117809
-0.000118754
-0.000119654
-0.000120509
-0.000121318
-0.000122074
-0.000122774
-0.000123409
-0.000123977
-0.000124472
-0.000124894
-0.00012524
-0.000125513
-0.000125712
-0.000125838
-0.00012589
-0.000125874
-0.000125798
-0.000125655
-0.000125434
-6.6122e-07
-4.31673e-07
-3.48821e-07
-4.17649e-07
-6.0943e-07
-8.94924e-07
-1.25559e-06
-1.68464e-06
-2.18139e-06
-2.73812e-06
-3.35131e-06
-4.02145e-06
-4.74386e-06
-5.51579e-06
-6.33653e-06
-7.20288e-06
-8.11291e-06
-9.0663e-06
-1.00576e-05
-1.10824e-05
-1.2138e-05
-1.32201e-05
-1.43269e-05
-1.54561e-05
-1.66024e-05
-1.77635e-05
-1.89371e-05
-2.01202e-05
-2.13102e-05
-2.25053e-05
-2.37019e-05
-2.48944e-05
-2.60816e-05
-2.7264e-05
-2.84408e-05
-2.9611e-05
-3.0773e-05
-3.19244e-05
-3.30639e-05
-3.41899e-05
-3.53023e-05
-3.64012e-05
-3.74863e-05
-3.85576e-05
-3.96132e-05
-4.06501e-05
-4.16669e-05
-4.26628e-05
-4.36372e-05
-4.4591e-05
-4.5525e-05
-4.64397e-05
-4.73359e-05
-4.82135e-05
-4.90723e-05
-4.99124e-05
-5.07334e-05
-5.15347e-05
-5.23159e-05
-5.30768e-05
-5.38186e-05
-5.45426e-05
-5.52483e-05
-5.59356e-05
-5.66058e-05
-5.72609e-05
-5.79031e-05
-5.8533e-05
-5.91503e-05
-5.97556e-05
-6.03498e-05
-6.0934e-05
-6.15086e-05
-6.20737e-05
-6.26309e-05
-6.31822e-05
-6.3728e-05
-6.42681e-05
-6.48024e-05
-6.53331e-05
-6.58626e-05
-6.63925e-05
-6.69227e-05
-6.7453e-05
-6.79837e-05
-6.85174e-05
-6.90578e-05
-6.96068e-05
-7.01644e-05
-7.07297e-05
-7.13019e-05
-7.18826e-05
-7.24746e-05
-7.3079e-05
-7.36956e-05
-7.43241e-05
-7.49656e-05
-7.56233e-05
-7.63007e-05
-7.69983e-05
-7.77135e-05
-7.84439e-05
-7.91887e-05
-7.99499e-05
-8.07306e-05
-8.15328e-05
-8.23576e-05
-8.32049e-05
-8.40739e-05
-8.49633e-05
-8.58726e-05
-8.68022e-05
-8.77521e-05
-8.87215e-05
-8.97096e-05
-9.07164e-05
-9.17427e-05
-9.27882e-05
-9.38508e-05
-9.49277e-05
-9.60171e-05
-9.71187e-05
-9.82327e-05
-9.93582e-05
-0.000100493
-0.000101635
-0.000102781
-0.000103929
-0.000105079
-0.000106229
-0.000107377
-0.000108521
-0.000109657
-0.000110782
-0.000111892
-0.000112984
-0.000114059
-0.000115111
-0.000116137
-0.00011713
-0.000118085
-0.000119
-0.000119871
-0.000120698
-0.000121479
-0.00012221
-0.000122887
-0.000123502
-0.000124051
-0.000124531
-0.000124941
-0.000125281
-0.000125552
-0.000125751
-0.000125878
-0.000125931
-0.000125915
-0.000125834
-0.000125669
-0.000125402
-9.27288e-07
-6.57058e-07
-5.38888e-07
-5.68651e-07
-7.20428e-07
-9.7715e-07
-1.31288e-06
-1.71902e-06
-2.19046e-06
-2.72326e-06
-3.31479e-06
-3.96125e-06
-4.6604e-06
-5.40977e-06
-6.20655e-06
-7.04765e-06
-7.93153e-06
-8.85633e-06
-9.81925e-06
-1.08169e-05
-1.1844e-05
-1.2897e-05
-1.39748e-05
-1.50743e-05
-1.6193e-05
-1.73289e-05
-1.84771e-05
-1.96337e-05
-2.0797e-05
-2.19646e-05
-2.31355e-05
-2.43071e-05
-2.54765e-05
-2.66421e-05
-2.78021e-05
-2.89551e-05
-3.01008e-05
-3.12375e-05
-3.23645e-05
-3.34811e-05
-3.45861e-05
-3.56793e-05
-3.67598e-05
-3.78268e-05
-3.88788e-05
-3.99141e-05
-4.09316e-05
-4.19296e-05
-4.29071e-05
-4.38655e-05
-4.48064e-05
-4.57302e-05
-4.66368e-05
-4.75258e-05
-4.8397e-05
-4.9251e-05
-5.00876e-05
-5.09061e-05
-5.17059e-05
-5.24869e-05
-5.32494e-05
-5.39943e-05
-5.47222e-05
-5.54336e-05
-5.61294e-05
-5.68105e-05
-5.74786e-05
-5.81349e-05
-5.87796e-05
-5.94137e-05
-6.00381e-05
-6.06526e-05
-6.12569e-05
-6.18517e-05
-6.24391e-05
-6.30216e-05
-6.36e-05
-6.41731e-05
-6.47407e-05
-6.53045e-05
-6.58672e-05
-6.64306e-05
-6.69938e-05
-6.75562e-05
-6.81187e-05
-6.86848e-05
-6.92586e-05
-6.98408e-05
-7.04297e-05
-7.10245e-05
-7.16261e-05
-7.22371e-05
-7.28592e-05
-7.34922e-05
-7.41355e-05
-7.47897e-05
-7.54573e-05
-7.61415e-05
-7.68447e-05
-7.75668e-05
-7.83046e-05
-7.90556e-05
-7.98195e-05
-8.05992e-05
-8.13982e-05
-8.22183e-05
-8.3059e-05
-8.39197e-05
-8.48e-05
-8.56998e-05
-8.66189e-05
-8.75566e-05
-8.85121e-05
-8.9485e-05
-9.04752e-05
-9.14829e-05
-9.25085e-05
-9.35511e-05
-9.46088e-05
-9.5679e-05
-9.676e-05
-9.78518e-05
-9.89549e-05
-0.000100069
-0.000101191
-0.000102317
-0.000103446
-0.000104576
-0.000105706
-0.000106837
-0.000107965
-0.000109088
-0.0001102
-0.000111298
-0.000112382
-0.000113449
-0.000114498
-0.000115525
-0.000116523
-0.000117488
-0.000118415
-0.000119302
-0.000120148
-0.000120951
-0.000121709
-0.000122418
-0.000123075
-0.000123672
-0.000124206
-0.000124672
-0.000125073
-0.000125408
-0.000125675
-0.000125874
-0.000126001
-0.000126053
-0.000126035
-0.000125947
-0.000125765
-0.000125462
-1.05557e-06
-7.69e-07
-6.36554e-07
-6.45029e-07
-7.66427e-07
-9.90125e-07
-1.30169e-06
-1.68478e-06
-2.13365e-06
-2.64691e-06
-3.21736e-06
-3.84314e-06
-4.52146e-06
-5.24909e-06
-6.02425e-06
-6.84492e-06
-7.70692e-06
-8.60797e-06
-9.54641e-06
-1.05183e-05
-1.15207e-05
-1.25496e-05
-1.36019e-05
-1.46755e-05
-1.57687e-05
-1.68795e-05
-1.80042e-05
-1.91398e-05
-2.02824e-05
-2.1428e-05
-2.25762e-05
-2.37265e-05
-2.4877e-05
-2.60262e-05
-2.71715e-05
-2.83113e-05
-2.94444e-05
-3.05691e-05
-3.16849e-05
-3.27917e-05
-3.38887e-05
-3.49764e-05
-3.60536e-05
-3.71174e-05
-3.81666e-05
-3.92004e-05
-4.02176e-05
-4.1217e-05
-4.21977e-05
-4.3161e-05
-4.41085e-05
-4.50408e-05
-4.59574e-05
-4.68576e-05
-4.77414e-05
-4.86089e-05
-4.946e-05
-5.02938e-05
-5.11105e-05
-5.19104e-05
-5.2693e-05
-5.34584e-05
-5.42074e-05
-5.4941e-05
-5.56609e-05
-5.63676e-05
-5.70613e-05
-5.77433e-05
-5.84141e-05
-5.90753e-05
-5.97274e-05
-6.037e-05
-6.10033e-05
-6.16282e-05
-6.22462e-05
-6.28591e-05
-6.34674e-05
-6.4071e-05
-6.46705e-05
-6.52673e-05
-6.58632e-05
-6.64591e-05
-6.70538e-05
-6.76471e-05
-6.82412e-05
-6.88395e-05
-6.94454e-05
-7.00589e-05
-7.06779e-05
-7.13019e-05
-7.1933e-05
-7.25737e-05
-7.3225e-05
-7.38857e-05
-7.4555e-05
-7.52348e-05
-7.59285e-05
-7.66394e-05
-7.73685e-05
-7.81143e-05
-7.88741e-05
-7.96458e-05
-8.04299e-05
-8.12289e-05
-8.20461e-05
-8.28835e-05
-8.37403e-05
-8.46152e-05
-8.55079e-05
-8.64187e-05
-8.73476e-05
-8.82937e-05
-8.92557e-05
-9.0233e-05
-9.12263e-05
-9.22362e-05
-9.32625e-05
-9.43034e-05
-9.53573e-05
-9.64224e-05
-9.74974e-05
-9.8582e-05
-9.96764e-05
-0.00010078
-0.00010189
-0.000103004
-0.000104119
-0.000105233
-0.000106347
-0.000107461
-0.000108571
-0.000109674
-0.000110765
-0.000111841
-0.000112902
-0.000113947
-0.000114974
-0.000115978
-0.000116953
-0.000117894
-0.000118796
-0.000119659
-0.000120483
-0.000121266
-0.000122005
-0.000122697
-0.000123337
-0.000123918
-0.000124438
-0.000124895
-0.000125288
-0.000125618
-0.000125883
-0.00012608
-0.000126206
-0.000126258
-0.000126237
-0.000126145
-0.00012595
-0.000125627
-1.06625e-06
-7.6422e-07
-6.25067e-07
-6.25596e-07
-7.26447e-07
-9.2683e-07
-1.21473e-06
-1.57722e-06
-2.00894e-06
-2.50284e-06
-3.05634e-06
-3.66538e-06
-4.32608e-06
-5.03551e-06
-5.79173e-06
-6.59331e-06
-7.43674e-06
-8.31889e-06
-9.23599e-06
-1.0186e-05
-1.1167e-05
-1.21745e-05
-1.32056e-05
-1.42589e-05
-1.53306e-05
-1.64183e-05
-1.75207e-05
-1.86353e-05
-1.97588e-05
-2.08869e-05
-2.20179e-05
-2.31514e-05
-2.42853e-05
-2.54185e-05
-2.65496e-05
-2.76767e-05
-2.87985e-05
-2.99134e-05
-3.10207e-05
-3.21197e-05
-3.321e-05
-3.42922e-05
-3.5365e-05
-3.64261e-05
-3.74739e-05
-3.85066e-05
-3.95232e-05
-4.05237e-05
-4.15081e-05
-4.24769e-05
-4.3431e-05
-4.43711e-05
-4.52967e-05
-4.62075e-05
-4.71033e-05
-4.7984e-05
-4.88492e-05
-4.96979e-05
-5.05306e-05
-5.13478e-05
-5.21491e-05
-5.29342e-05
-5.37038e-05
-5.4459e-05
-5.52014e-05
-5.59318e-05
-5.665e-05
-5.73571e-05
-5.8054e-05
-5.87417e-05
-5.94202e-05
-6.00891e-05
-6.07493e-05
-6.14031e-05
-6.20515e-05
-6.26946e-05
-6.33322e-05
-6.39649e-05
-6.45948e-05
-6.52238e-05
-6.58521e-05
-6.64791e-05
-6.71038e-05
-6.77271e-05
-6.83525e-05
-6.8983e-05
-6.962e-05
-7.02632e-05
-7.09111e-05
-7.15641e-05
-7.22247e-05
-7.28946e-05
-7.35737e-05
-7.4261e-05
-7.4956e-05
-7.56615e-05
-7.63817e-05
-7.71194e-05
-7.78741e-05
-7.86433e-05
-7.94243e-05
-8.02165e-05
-8.10211e-05
-8.18404e-05
-8.26766e-05
-8.3531e-05
-8.44032e-05
-8.52925e-05
-8.61983e-05
-8.71209e-05
-8.80601e-05
-8.90149e-05
-8.9984e-05
-9.09669e-05
-9.19645e-05
-9.29777e-05
-9.40057e-05
-9.50465e-05
-9.6098e-05
-9.71593e-05
-9.82301e-05
-9.931e-05
-0.000100398
-0.000101494
-0.000102594
-0.000103696
-0.000104798
-0.0001059
-0.000107001
-0.0001081
-0.000109195
-0.00011028
-0.000111351
-0.000112409
-0.000113451
-0.000114478
-0.000115485
-0.000116469
-0.000117424
-0.000118345
-0.000119227
-0.00012007
-0.000120875
-0.000121641
-0.000122365
-0.000123043
-0.000123668
-0.000124237
-0.000124746
-0.000125195
-0.000125582
-0.000125908
-0.000126171
-0.000126368
-0.000126494
-0.000126546
-0.000126525
-0.000126431
-0.000126232
-0.000125899
-9.52243e-07
-6.45111e-07
-5.02534e-07
-4.98291e-07
-5.91751e-07
-7.77001e-07
-1.04747e-06
-1.39605e-06
-1.81164e-06
-2.29125e-06
-2.83027e-06
-3.42484e-06
-4.07215e-06
-4.7676e-06
-5.50865e-06
-6.29423e-06
-7.12168e-06
-7.98717e-06
-8.88739e-06
-9.81969e-06
-1.07817e-05
-1.17704e-05
-1.27834e-05
-1.38191e-05
-1.48733e-05
-1.59434e-05
-1.70274e-05
-1.81228e-05
-1.92276e-05
-2.03391e-05
-2.14554e-05
-2.25754e-05
-2.36963e-05
-2.48166e-05
-2.59357e-05
-2.70512e-05
-2.81623e-05
-2.92681e-05
-3.03676e-05
-3.14609e-05
-3.2547e-05
-3.36246e-05
-3.46932e-05
-3.57516e-05
-3.67981e-05
-3.78301e-05
-3.88465e-05
-3.98483e-05
-4.08365e-05
-4.18112e-05
-4.27724e-05
-4.37201e-05
-4.46546e-05
-4.55757e-05
-4.64826e-05
-4.73753e-05
-4.82536e-05
-4.91172e-05
-4.99657e-05
-5.07994e-05
-5.16179e-05
-5.24216e-05
-5.32114e-05
-5.39878e-05
-5.4752e-05
-5.55047e-05
-5.6246e-05
-5.69771e-05
-5.76994e-05
-5.84129e-05
-5.91171e-05
-5.98117e-05
-6.04983e-05
-6.11795e-05
-6.18563e-05
-6.25281e-05
-6.31945e-05
-6.38564e-05
-6.45164e-05
-6.51764e-05
-6.58357e-05
-6.64924e-05
-6.71461e-05
-6.77989e-05
-6.8455e-05
-6.91167e-05
-6.97838e-05
-7.04554e-05
-7.11314e-05
-7.18134e-05
-7.25034e-05
-7.32019e-05
-7.39077e-05
-7.46204e-05
-7.53409e-05
-7.60725e-05
-7.68193e-05
-7.75834e-05
-7.83633e-05
-7.91557e-05
-7.99581e-05
-8.07706e-05
-8.15956e-05
-8.24353e-05
-8.32908e-05
-8.41624e-05
-8.50501e-05
-8.59535e-05
-8.68728e-05
-8.78078e-05
-8.87577e-05
-8.97215e-05
-9.06982e-05
-9.1688e-05
-9.26913e-05
-9.37088e-05
-9.47395e-05
-9.57814e-05
-9.68324e-05
-9.78917e-05
-9.89598e-05
-0.000100037
-0.000101121
-0.00010221
-0.000103302
-0.000104395
-0.000105487
-0.000106578
-0.000107669
-0.000108756
-0.000109836
-0.000110905
-0.000111961
-0.000113001
-0.000114028
-0.00011504
-0.000116032
-0.000116999
-0.000117936
-0.000118838
-0.000119704
-0.000120532
-0.000121322
-0.000122074
-0.000122785
-0.000123451
-0.000124066
-0.000124624
-0.000125125
-0.000125568
-0.000125952
-0.000126277
-0.000126539
-0.000126735
-0.000126862
-0.000126916
-0.000126899
-0.000126808
-0.00012661
-0.000126278
-7.08922e-07
-4.1099e-07
-2.70552e-07
-2.67264e-07
-3.5828e-07
-5.36576e-07
-7.98655e-07
-1.1356e-06
-1.54161e-06
-2.01085e-06
-2.53875e-06
-3.12241e-06
-3.75823e-06
-4.44313e-06
-5.1734e-06
-5.94667e-06
-6.76047e-06
-7.61224e-06
-8.49931e-06
-9.41729e-06
-1.03642e-05
-1.13382e-05
-1.23355e-05
-1.33547e-05
-1.43938e-05
-1.54494e-05
-1.65189e-05
-1.75992e-05
-1.86888e-05
-1.9786e-05
-2.08891e-05
-2.19966e-05
-2.31062e-05
-2.42163e-05
-2.53257e-05
-2.64321e-05
-2.75347e-05
-2.86324e-05
-2.9725e-05
-3.08133e-05
-3.18959e-05
-3.29704e-05
-3.40363e-05
-3.50927e-05
-3.61378e-05
-3.71695e-05
-3.81866e-05
-3.91904e-05
-4.01825e-05
-4.11628e-05
-4.21309e-05
-4.30865e-05
-4.40299e-05
-4.49612e-05
-4.58793e-05
-4.67834e-05
-4.7674e-05
-4.85517e-05
-4.94155e-05
-5.02651e-05
-5.11002e-05
-5.19216e-05
-5.27306e-05
-5.35276e-05
-5.43128e-05
-5.5087e-05
-5.58508e-05
-5.66054e-05
-5.73518e-05
-5.80895e-05
-5.88182e-05
-5.95384e-05
-6.02516e-05
-6.09597e-05
-6.16633e-05
-6.23619e-05
-6.3056e-05
-6.37471e-05
-6.44371e-05
-6.51271e-05
-6.58156e-05
-6.65006e-05
-6.71827e-05
-6.78649e-05
-6.85511e-05
-6.92427e-05
-6.99385e-05
-7.06377e-05
-7.13415e-05
-7.20521e-05
-7.2771e-05
-7.34972e-05
-7.4229e-05
-7.49665e-05
-7.57124e-05
-7.64705e-05
-7.72441e-05
-7.80339e-05
-7.88379e-05
-7.9653e-05
-8.0477e-05
-8.13105e-05
-8.21559e-05
-8.30154e-05
-8.38899e-05
-8.47788e-05
-8.56819e-05
-8.65998e-05
-8.75328e-05
-8.84805e-05
-8.94415e-05
-9.04147e-05
-9.13998e-05
-9.23974e-05
-9.34078e-05
-9.44307e-05
-9.5465e-05
-9.6509e-05
-9.75612e-05
-9.86207e-05
-9.9688e-05
-0.000100763
-0.000101844
-0.00010293
-0.000104015
-0.0001051
-0.000106184
-0.000107267
-0.000108349
-0.000109426
-0.000110494
-0.00011155
-0.000112592
-0.000113619
-0.000114632
-0.000115631
-0.00011661
-0.000117564
-0.000118486
-0.000119374
-0.000120225
-0.00012104
-0.000121819
-0.000122561
-0.000123262
-0.000123918
-0.000124524
-0.000125076
-0.000125572
-0.000126011
-0.000126394
-0.000126718
-0.000126981
-0.000127179
-0.000127309
-0.000127369
-0.000127357
-0.000127273
-0.000127084
-0.000126762
-3.35557e-07
-6.03621e-08
6.65453e-08
6.45211e-08
-2.82277e-08
-2.07109e-07
-4.64589e-07
-7.96318e-07
-1.19654e-06
-1.6596e-06
-2.1817e-06
-2.75751e-06
-3.38529e-06
-4.06242e-06
-4.78482e-06
-5.54908e-06
-6.35271e-06
-7.19404e-06
-8.07003e-06
-8.97679e-06
-9.91259e-06
-1.08753e-05
-1.18606e-05
-1.28668e-05
-1.38927e-05
-1.49354e-05
-1.59923e-05
-1.70603e-05
-1.81384e-05
-1.9225e-05
-2.03173e-05
-2.14143e-05
-2.25144e-05
-2.36155e-05
-2.47167e-05
-2.5816e-05
-2.69119e-05
-2.80042e-05
-2.90922e-05
-3.01762e-05
-3.12554e-05
-3.23278e-05
-3.33923e-05
-3.44472e-05
-3.54909e-05
-3.65227e-05
-3.75419e-05
-3.85492e-05
-3.95456e-05
-4.05315e-05
-4.15065e-05
-4.24701e-05
-4.34223e-05
-4.43631e-05
-4.5292e-05
-4.62078e-05
-4.7111e-05
-4.8002e-05
-4.888e-05
-4.97448e-05
-5.05963e-05
-5.14351e-05
-5.22625e-05
-5.30791e-05
-5.38845e-05
-5.46796e-05
-5.54656e-05
-5.62434e-05
-5.7013e-05
-5.77736e-05
-5.85255e-05
-5.92705e-05
-6.00099e-05
-6.07444e-05
-6.14739e-05
-6.21983e-05
-6.29193e-05
-6.36391e-05
-6.43588e-05
-6.50776e-05
-6.57934e-05
-6.65054e-05
-6.72155e-05
-6.79271e-05
-6.86427e-05
-6.93626e-05
-7.00858e-05
-7.08124e-05
-7.15441e-05
-7.22831e-05
-7.30298e-05
-7.37825e-05
-7.45395e-05
-7.53017e-05
-7.60731e-05
-7.6858e-05
-7.76583e-05
-7.84733e-05
-7.93004e-05
-8.01373e-05
-8.09828e-05
-8.18378e-05
-8.2704e-05
-8.3583e-05
-8.44756e-05
-8.53812e-05
-8.63e-05
-8.72327e-05
-8.81796e-05
-8.91402e-05
-9.01127e-05
-9.1096e-05
-9.20903e-05
-9.30966e-05
-9.41151e-05
-9.51445e-05
-9.61833e-05
-9.72304e-05
-9.82848e-05
-9.93464e-05
-0.000100415
-0.00010149
-0.000102569
-0.000103651
-0.000104731
-0.000105811
-0.000106889
-0.000107967
-0.000109042
-0.00011011
-0.000111168
-0.000112213
-0.000113243
-0.00011426
-0.000115263
-0.000116251
-0.000117218
-0.00011816
-0.000119071
-0.000119948
-0.000120788
-0.000121594
-0.000122364
-0.000123098
-0.000123792
-0.00012444
-0.00012504
-0.000125587
-0.000126081
-0.000126519
-0.000126903
-0.000127229
-0.000127495
-0.000127698
-0.000127833
-0.000127901
-0.000127899
-0.000127826
-0.00012765
-0.000127346
1.63709e-07
4.02903e-07
5.08665e-07
4.95187e-07
3.94326e-07
2.11691e-07
-4.74509e-08
-3.78741e-07
-7.76561e-07
-1.23755e-06
-1.75659e-06
-2.32955e-06
-2.95341e-06
-3.62542e-06
-4.34226e-06
-5.10062e-06
-5.89832e-06
-6.73194e-06
-7.59952e-06
-8.49823e-06
-9.42527e-06
-1.0379e-05
-1.13557e-05
-1.23528e-05
-1.33688e-05
-1.44011e-05
-1.54472e-05
-1.65053e-05
-1.75745e-05
-1.86527e-05
-1.97369e-05
-2.08262e-05
-2.19191e-05
-2.30132e-05
-2.41076e-05
-2.52007e-05
-2.62915e-05
-2.73804e-05
-2.8466e-05
-2.95472e-05
-3.06241e-05
-3.16956e-05
-3.27596e-05
-3.38138e-05
-3.48567e-05
-3.5889e-05
-3.69111e-05
-3.79227e-05
-3.89242e-05
-3.99161e-05
-4.08985e-05
-4.18706e-05
-4.28315e-05
-4.37813e-05
-4.47204e-05
-4.56482e-05
-4.65641e-05
-4.74681e-05
-4.83597e-05
-4.92391e-05
-5.01066e-05
-5.09627e-05
-5.18081e-05
-5.26431e-05
-5.34678e-05
-5.42834e-05
-5.50913e-05
-5.58916e-05
-5.66836e-05
-5.74665e-05
-5.82413e-05
-5.90103e-05
-5.97747e-05
-6.05343e-05
-6.12888e-05
-6.20387e-05
-6.27865e-05
-6.35346e-05
-6.42829e-05
-6.5029e-05
-6.57709e-05
-6.65093e-05
-6.72471e-05
-6.79874e-05
-6.87312e-05
-6.9478e-05
-7.02278e-05
-7.09816e-05
-7.17415e-05
-7.25087e-05
-7.32822e-05
-7.406e-05
-7.48414e-05
-7.56285e-05
-7.64257e-05
-7.7237e-05
-7.80635e-05
-7.89032e-05
-7.97529e-05
-8.0611e-05
-8.14777e-05
-8.23539e-05
-8.32409e-05
-8.41392e-05
-8.50493e-05
-8.59713e-05
-8.69059e-05
-8.78537e-05
-8.88149e-05
-8.97881e-05
-9.07723e-05
-9.17666e-05
-9.27712e-05
-9.37871e-05
-9.48141e-05
-9.58507e-05
-9.68951e-05
-9.79463e-05
-9.90042e-05
-0.000100069
-0.00010114
-0.000102217
-0.000103295
-0.000104374
-0.000105451
-0.000106527
-0.000107602
-0.000108675
-0.000109745
-0.000110807
-0.000111857
-0.000112892
-0.000113914
-0.000114923
-0.000115918
-0.000116896
-0.000117855
-0.000118787
-0.000119689
-0.000120557
-0.00012139
-0.000122188
-0.000122952
-0.000123681
-0.000124369
-0.000125013
-0.000125608
-0.000126153
-0.000126647
-0.000127089
-0.000127476
-0.000127806
-0.000128077
-0.000128286
-0.00012843
-0.000128508
-0.000128519
-0.000128461
-0.000128304
-0.000128023
7.76565e-07
9.75845e-07
1.05408e-06
1.02228e-06
9.09877e-07
7.18567e-07
4.52388e-07
1.16956e-07
-2.83577e-07
-7.45131e-07
-1.26476e-06
-1.83838e-06
-2.46166e-06
-3.1317e-06
-3.84564e-06
-4.60123e-06
-5.39552e-06
-6.22476e-06
-7.08767e-06
-7.98151e-06
-8.90227e-06
-9.84911e-06
-1.08195e-05
-1.18102e-05
-1.28192e-05
-1.38438e-05
-1.48825e-05
-1.59336e-05
-1.69956e-05
-1.80672e-05
-1.91456e-05
-2.02294e-05
-2.13174e-05
-2.24071e-05
-2.34967e-05
-2.45855e-05
-2.56732e-05
-2.67599e-05
-2.7844e-05
-2.8924e-05
-3.00003e-05
-3.10718e-05
-3.21359e-05
-3.31903e-05
-3.42342e-05
-3.52685e-05
-3.6294e-05
-3.73103e-05
-3.83174e-05
-3.93158e-05
-4.03057e-05
-4.12866e-05
-4.22568e-05
-4.32159e-05
-4.4165e-05
-4.51043e-05
-4.60328e-05
-4.69497e-05
-4.78548e-05
-4.87485e-05
-4.96318e-05
-5.05049e-05
-5.13677e-05
-5.22205e-05
-5.30643e-05
-5.39003e-05
-5.47293e-05
-5.55508e-05
-5.6364e-05
-5.71689e-05
-5.79667e-05
-5.87593e-05
-5.95476e-05
-6.03308e-05
-6.11093e-05
-6.18847e-05
-6.26594e-05
-6.3435e-05
-6.42102e-05
-6.4982e-05
-6.57493e-05
-6.65141e-05
-6.72794e-05
-6.80474e-05
-6.88181e-05
-6.95909e-05
-7.03665e-05
-7.11475e-05
-7.19354e-05
-7.273e-05
-7.35293e-05
-7.43315e-05
-7.5137e-05
-7.59492e-05
-7.67723e-05
-7.76096e-05
-7.8461e-05
-7.93242e-05
-8.01962e-05
-8.10757e-05
-8.19634e-05
-8.28604e-05
-8.37676e-05
-8.46847e-05
-8.5612e-05
-8.65503e-05
-8.75009e-05
-8.84642e-05
-8.94395e-05
-9.04256e-05
-9.14216e-05
-9.24274e-05
-9.34434e-05
-9.44696e-05
-9.55055e-05
-9.65498e-05
-9.76005e-05
-9.8657e-05
-9.97196e-05
-0.000100789
-0.000101864
-0.000102942
-0.000104021
-0.000105098
-0.000106173
-0.000107247
-0.000108321
-0.000109393
-0.000110459
-0.000111516
-0.000112559
-0.000113588
-0.000114603
-0.000115605
-0.000116593
-0.000117566
-0.000118517
-0.000119442
-0.000120337
-0.000121198
-0.000122026
-0.00012282
-0.00012358
-0.000124305
-0.00012499
-0.00012563
-0.000126225
-0.000126771
-0.000127268
-0.000127714
-0.000128107
-0.000128444
-0.000128723
-0.00012894
-0.000129096
-0.000129187
-0.000129215
-0.000129175
-0.00012904
-0.000128789
1.4928e-06
1.65135e-06
1.69814e-06
1.64447e-06
1.51581e-06
1.31094e-06
1.03446e-06
6.9021e-07
2.82678e-07
-1.84034e-07
-7.07613e-07
-1.28433e-06
-1.90986e-06
-2.58123e-06
-3.29599e-06
-4.05101e-06
-4.84393e-06
-5.672e-06
-6.5331e-06
-7.42462e-06
-8.34269e-06
-9.28577e-06
-1.02521e-05
-1.12384e-05
-1.22423e-05
-1.3262e-05
-1.42966e-05
-1.53437e-05
-1.64009e-05
-1.74678e-05
-1.85423e-05
-1.96224e-05
-2.07071e-05
-2.17939e-05
-2.28811e-05
-2.39685e-05
-2.50554e-05
-2.61412e-05
-2.72251e-05
-2.83059e-05
-2.93831e-05
-3.0455e-05
-3.15195e-05
-3.25752e-05
-3.36217e-05
-3.46595e-05
-3.56892e-05
-3.6711e-05
-3.77246e-05
-3.87302e-05
-3.97279e-05
-4.07172e-05
-4.16969e-05
-4.26663e-05
-4.36261e-05
-4.45766e-05
-4.5517e-05
-4.64467e-05
-4.73655e-05
-4.82737e-05
-4.91723e-05
-5.00617e-05
-5.09414e-05
-5.1812e-05
-5.26749e-05
-5.35312e-05
-5.43807e-05
-5.52222e-05
-5.60556e-05
-5.68819e-05
-5.77025e-05
-5.85182e-05
-5.93292e-05
-6.01351e-05
-6.09371e-05
-6.17381e-05
-6.25396e-05
-6.33416e-05
-6.41418e-05
-6.49378e-05
-6.573e-05
-6.65212e-05
-6.73135e-05
-6.81081e-05
-6.89045e-05
-6.97027e-05
-7.05044e-05
-7.13123e-05
-7.21275e-05
-7.29484e-05
-7.37723e-05
-7.4598e-05
-7.54275e-05
-7.6265e-05
-7.71143e-05
-7.79768e-05
-7.88518e-05
-7.97373e-05
-8.06309e-05
-8.15319e-05
-8.24407e-05
-8.33582e-05
-8.42847e-05
-8.52199e-05
-8.61644e-05
-8.71193e-05
-8.80859e-05
-8.90645e-05
-9.00541e-05
-9.10532e-05
-9.20615e-05
-9.30795e-05
-9.41073e-05
-9.51444e-05
-9.61896e-05
-9.72416e-05
-9.82992e-05
-9.93621e-05
-0.000100431
-0.000101506
-0.000102585
-0.000103666
-0.000104746
-0.000105823
-0.000106898
-0.000107972
-0.000109046
-0.000110117
-0.000111181
-0.000112234
-0.000113273
-0.000114297
-0.000115308
-0.000116305
-0.000117289
-0.000118256
-0.000119202
-0.000120122
-0.000121012
-0.000121869
-0.000122694
-0.000123487
-0.000124245
-0.000124967
-0.00012565
-0.00012629
-0.000126886
-0.000127436
-0.000127938
-0.000128392
-0.000128794
-0.00012914
-0.000129427
-0.000129656
-0.000129826
-0.000129934
-0.00012998
-0.000129962
-0.000129853
-0.000129636
2.30608e-06
2.42273e-06
2.43707e-06
2.35853e-06
2.20764e-06
1.98595e-06
1.69572e-06
1.33929e-06
9.21087e-07
4.45024e-07
-8.58712e-08
-6.68355e-07
-1.2987e-06
-1.97474e-06
-2.69316e-06
-3.45028e-06
-4.24514e-06
-5.07458e-06
-5.93585e-06
-6.82712e-06
-7.74517e-06
-8.68767e-06
-9.65256e-06
-1.06365e-05
-1.16376e-05
-1.2655e-05
-1.36874e-05
-1.47327e-05
-1.57881e-05
-1.68531e-05
-1.79261e-05
-1.90047e-05
-2.00874e-05
-2.11727e-05
-2.22597e-05
-2.3348e-05
-2.44357e-05
-2.55221e-05
-2.66077e-05