/*--------------------------------*- C++ -*----------------------------------*\
  =========                 |
  \\      /  F ield         | OpenFOAM: The Open Source CFD Toolbox
   \\    /   O peration     | Website:  https://openfoam.org
    \\  /    A nd           | Version:  7
     \\/     M anipulation  |
\*---------------------------------------------------------------------------*/
FoamFile
{
    version     2.0;
    format      ascii;
    class       volVectorField;
    location    "0.25";
    object      U;
}
// * * * * * * * * * * * * * * * * * * * * * * * * * * * * * * * * * * * * * //

dimensions      [0 1 -1 0 0 0 0];

internalField   nonuniform List<vector> 
51200
(
(-6.62666e-08 -5.28516e-08 0)
(-6.96271e-08 -4.75878e-08 0)
(1.33394e-08 -4.02186e-08 0)
(1.26636e-07 -4.11336e-08 0)
(2.38866e-07 -4.00433e-08 0)
(3.5415e-07 -3.7984e-08 0)
(4.6875e-07 -3.66574e-08 0)
(5.81744e-07 -3.62631e-08 0)
(6.90174e-07 -3.54018e-08 0)
(7.91683e-07 -3.31007e-08 0)
(8.84937e-07 -3.00327e-08 0)
(9.68638e-07 -2.66896e-08 0)
(1.04098e-06 -2.33116e-08 0)
(1.10063e-06 -1.92675e-08 0)
(1.14689e-06 -1.51333e-08 0)
(1.17857e-06 -1.07518e-08 0)
(1.19562e-06 -6.24504e-09 0)
(1.19725e-06 -1.7958e-09 0)
(1.18284e-06 2.70798e-09 0)
(1.15296e-06 7.28892e-09 0)
(1.10731e-06 1.16915e-08 0)
(1.04584e-06 1.59022e-08 0)
(9.69409e-07 2.00868e-08 0)
(8.77802e-07 2.42701e-08 0)
(7.71058e-07 2.83641e-08 0)
(6.50217e-07 3.24352e-08 0)
(5.15642e-07 3.65282e-08 0)
(3.67475e-07 4.0697e-08 0)
(2.06689e-07 4.50746e-08 0)
(3.38339e-08 4.94579e-08 0)
(-1.5086e-07 5.32958e-08 0)
(-3.46526e-07 5.62769e-08 0)
(-5.52251e-07 5.84775e-08 0)
(-7.67391e-07 6.01595e-08 0)
(-9.91156e-07 6.18092e-08 0)
(-1.22276e-06 6.39502e-08 0)
(-1.46168e-06 6.65699e-08 0)
(-1.70728e-06 6.91252e-08 0)
(-1.95868e-06 7.11273e-08 0)
(-2.21507e-06 7.24389e-08 0)
(-2.47581e-06 7.32012e-08 0)
(-2.74004e-06 7.37141e-08 0)
(-3.00694e-06 7.42655e-08 0)
(-3.27593e-06 7.48883e-08 0)
(-3.54634e-06 7.54075e-08 0)
(-3.81736e-06 7.56331e-08 0)
(-4.08833e-06 7.54854e-08 0)
(-4.35867e-06 7.50509e-08 0)
(-4.62764e-06 7.45005e-08 0)
(-4.89454e-06 7.39134e-08 0)
(-5.15874e-06 7.32039e-08 0)
(-5.41957e-06 7.22821e-08 0)
(-5.67627e-06 7.10851e-08 0)
(-5.92828e-06 6.9583e-08 0)
(-6.17519e-06 6.78613e-08 0)
(-6.4165e-06 6.61005e-08 0)
(-6.65167e-06 6.44327e-08 0)
(-6.88027e-06 6.27395e-08 0)
(-7.10172e-06 6.07565e-08 0)
(-7.31542e-06 5.84234e-08 0)
(-7.52095e-06 5.59195e-08 0)
(-7.71803e-06 5.33989e-08 0)
(-7.90625e-06 5.08486e-08 0)
(-8.08517e-06 4.8178e-08 0)
(-8.25434e-06 4.53466e-08 0)
(-8.4135e-06 4.24002e-08 0)
(-8.56249e-06 3.94739e-08 0)
(-8.70115e-06 3.66972e-08 0)
(-8.8293e-06 3.40275e-08 0)
(-8.94664e-06 3.12419e-08 0)
(-9.05284e-06 2.81521e-08 0)
(-9.14768e-06 2.4774e-08 0)
(-9.23099e-06 2.12891e-08 0)
(-9.30269e-06 1.79044e-08 0)
(-9.36272e-06 1.47073e-08 0)
(-9.41093e-06 1.16211e-08 0)
(-9.44717e-06 8.47709e-09 0)
(-9.4713e-06 5.1246e-09 0)
(-9.4832e-06 1.58573e-09 0)
(-9.48287e-06 -1.95519e-09 0)
(-9.47035e-06 -5.39355e-09 0)
(-9.44572e-06 -8.78193e-09 0)
(-9.40904e-06 -1.21897e-08 0)
(-9.36031e-06 -1.55905e-08 0)
(-9.2996e-06 -1.88641e-08 0)
(-9.22708e-06 -2.19782e-08 0)
(-9.1429e-06 -2.50937e-08 0)
(-9.04724e-06 -2.83363e-08 0)
(-8.94035e-06 -3.1619e-08 0)
(-8.82247e-06 -3.47538e-08 0)
(-8.69386e-06 -3.76331e-08 0)
(-8.55482e-06 -4.03231e-08 0)
(-8.40552e-06 -4.29825e-08 0)
(-8.24617e-06 -4.56877e-08 0)
(-8.0771e-06 -4.83916e-08 0)
(-7.89867e-06 -5.10077e-08 0)
(-7.71126e-06 -5.34763e-08 0)
(-7.51528e-06 -5.57748e-08 0)
(-7.31109e-06 -5.79244e-08 0)
(-7.09907e-06 -5.99878e-08 0)
(-6.87964e-06 -6.19991e-08 0)
(-6.65322e-06 -6.39097e-08 0)
(-6.42026e-06 -6.5657e-08 0)
(-6.18121e-06 -6.72394e-08 0)
(-5.93659e-06 -6.87051e-08 0)
(-5.68689e-06 -7.00953e-08 0)
(-5.43265e-06 -7.13639e-08 0)
(-5.17448e-06 -7.23929e-08 0)
(-4.91303e-06 -7.3129e-08 0)
(-4.64893e-06 -7.36382e-08 0)
(-4.38279e-06 -7.4035e-08 0)
(-4.11517e-06 -7.43864e-08 0)
(-3.84668e-06 -7.46334e-08 0)
(-3.57801e-06 -7.46409e-08 0)
(-3.30986e-06 -7.43472e-08 0)
(-3.04291e-06 -7.37976e-08 0)
(-2.77781e-06 -7.30679e-08 0)
(-2.5152e-06 -7.22095e-08 0)
(-2.25579e-06 -7.12201e-08 0)
(-2.00034e-06 -7.00389e-08 0)
(-1.74959e-06 -6.85871e-08 0)
(-1.5043e-06 -6.68398e-08 0)
(-1.26512e-06 -6.48512e-08 0)
(-1.03272e-06 -6.27049e-08 0)
(-8.0775e-07 -6.04644e-08 0)
(-5.90859e-07 -5.81239e-08 0)
(-3.82751e-07 -5.55675e-08 0)
(-1.84173e-07 -5.26744e-08 0)
(4.18812e-09 -4.94875e-08 0)
(1.81744e-07 -4.61803e-08 0)
(3.47938e-07 -4.28569e-08 0)
(5.02163e-07 -3.94286e-08 0)
(6.43757e-07 -3.57015e-08 0)
(7.72089e-07 -3.1605e-08 0)
(8.86654e-07 -2.73058e-08 0)
(9.87059e-07 -2.30429e-08 0)
(1.07296e-06 -1.88759e-08 0)
(1.14399e-06 -1.46513e-08 0)
(1.19985e-06 -1.02053e-08 0)
(1.24036e-06 -5.55644e-09 0)
(1.26549e-06 -8.83093e-10 0)
(1.27528e-06 3.664e-09 0)
(1.26979e-06 8.07689e-09 0)
(1.24919e-06 1.24214e-08 0)
(1.21381e-06 1.67227e-08 0)
(1.16416e-06 2.09741e-08 0)
(1.10081e-06 2.51057e-08 0)
(1.02467e-06 2.89268e-08 0)
(9.36932e-07 3.22712e-08 0)
(8.39067e-07 3.5099e-08 0)
(7.32891e-07 3.73358e-08 0)
(6.207e-07 3.88009e-08 0)
(5.05308e-07 3.9241e-08 0)
(3.90215e-07 3.83412e-08 0)
(2.79662e-07 3.58083e-08 0)
(1.78649e-07 3.13069e-08 0)
(9.31475e-08 2.43249e-08 0)
(2.99374e-08 1.44499e-08 0)
(-4.44193e-09 2.25971e-09 0)
(-6.74691e-09 -6.77296e-09 0)
(-4.19308e-08 -6.24e-08 0)
(-3.19818e-08 -1.23818e-07 0)
(1.10973e-07 -1.65378e-07 0)
(3.31189e-07 -2.03672e-07 0)
(5.90373e-07 -2.1935e-07 0)
(8.68175e-07 -2.22716e-07 0)
(1.15184e-06 -2.19325e-07 0)
(1.43236e-06 -2.12401e-07 0)
(1.70169e-06 -2.02612e-07 0)
(1.95392e-06 -1.88383e-07 0)
(2.1841e-06 -1.705e-07 0)
(2.38759e-06 -1.49761e-07 0)
(2.56043e-06 -1.26466e-07 0)
(2.69859e-06 -1.00749e-07 0)
(2.79885e-06 -7.33132e-08 0)
(2.85957e-06 -4.41263e-08 0)
(2.87849e-06 -1.4138e-08 0)
(2.85457e-06 1.62556e-08 0)
(2.78715e-06 4.72778e-08 0)
(2.6753e-06 7.84714e-08 0)
(2.51914e-06 1.09324e-07 0)
(2.31918e-06 1.40105e-07 0)
(2.07572e-06 1.7024e-07 0)
(1.78953e-06 1.99504e-07 0)
(1.46174e-06 2.28194e-07 0)
(1.09342e-06 2.56069e-07 0)
(6.85731e-07 2.82693e-07 0)
(2.402e-07 3.08412e-07 0)
(-2.41617e-07 3.33364e-07 0)
(-7.58114e-07 3.57257e-07 0)
(-1.30734e-06 3.79918e-07 0)
(-1.88726e-06 4.01111e-07 0)
(-2.49608e-06 4.20507e-07 0)
(-3.13177e-06 4.38058e-07 0)
(-3.79214e-06 4.5403e-07 0)
(-4.47542e-06 4.68815e-07 0)
(-5.17954e-06 4.82562e-07 0)
(-5.90212e-06 4.9518e-07 0)
(-6.64106e-06 5.06332e-07 0)
(-7.39431e-06 5.15689e-07 0)
(-8.15966e-06 5.23294e-07 0)
(-8.93499e-06 5.29369e-07 0)
(-9.71834e-06 5.34018e-07 0)
(-1.05076e-05 5.37356e-07 0)
(-1.13005e-05 5.39454e-07 0)
(-1.20949e-05 5.40187e-07 0)
(-1.2889e-05 5.39408e-07 0)
(-1.36808e-05 5.37162e-07 0)
(-1.44683e-05 5.33614e-07 0)
(-1.52498e-05 5.28807e-07 0)
(-1.60233e-05 5.2273e-07 0)
(-1.6787e-05 5.15475e-07 0)
(-1.75391e-05 5.07045e-07 0)
(-1.82777e-05 4.97329e-07 0)
(-1.90014e-05 4.86425e-07 0)
(-1.97085e-05 4.74549e-07 0)
(-2.03977e-05 4.61807e-07 0)
(-2.10676e-05 4.4823e-07 0)
(-2.17166e-05 4.33699e-07 0)
(-2.23432e-05 4.18064e-07 0)
(-2.29461e-05 4.01391e-07 0)
(-2.35242e-05 3.83848e-07 0)
(-2.40765e-05 3.65599e-07 0)
(-2.46018e-05 3.46769e-07 0)
(-2.50989e-05 3.27359e-07 0)
(-2.55671e-05 3.07312e-07 0)
(-2.60054e-05 2.86691e-07 0)
(-2.64133e-05 2.65687e-07 0)
(-2.67899e-05 2.44421e-07 0)
(-2.71346e-05 2.22788e-07 0)
(-2.74467e-05 2.00606e-07 0)
(-2.77254e-05 1.77851e-07 0)
(-2.79704e-05 1.5461e-07 0)
(-2.8181e-05 1.31046e-07 0)
(-2.8357e-05 1.07359e-07 0)
(-2.84982e-05 8.36323e-08 0)
(-2.86043e-05 5.98134e-08 0)
(-2.86751e-05 3.58158e-08 0)
(-2.87104e-05 1.16202e-08 0)
(-2.871e-05 -1.266e-08 0)
(-2.86741e-05 -3.69271e-08 0)
(-2.86026e-05 -6.11662e-08 0)
(-2.84958e-05 -8.53126e-08 0)
(-2.83538e-05 -1.0926e-07 0)
(-2.8177e-05 -1.32883e-07 0)
(-2.79658e-05 -1.56076e-07 0)
(-2.77206e-05 -1.78912e-07 0)
(-2.74418e-05 -2.01502e-07 0)
(-2.713e-05 -2.23772e-07 0)
(-2.67858e-05 -2.45589e-07 0)
(-2.64098e-05 -2.66853e-07 0)
(-2.60029e-05 -2.87507e-07 0)
(-2.55659e-05 -3.0759e-07 0)
(-2.50994e-05 -3.27144e-07 0)
(-2.46045e-05 -3.46109e-07 0)
(-2.4082e-05 -3.64413e-07 0)
(-2.3533e-05 -3.81994e-07 0)
(-2.29586e-05 -3.9878e-07 0)
(-2.23601e-05 -4.14746e-07 0)
(-2.17386e-05 -4.29904e-07 0)
(-2.10952e-05 -4.44247e-07 0)
(-2.04313e-05 -4.57721e-07 0)
(-1.9748e-05 -4.70261e-07 0)
(-1.9047e-05 -4.81833e-07 0)
(-1.83297e-05 -4.9241e-07 0)
(-1.75977e-05 -5.01944e-07 0)
(-1.68527e-05 -5.10365e-07 0)
(-1.6096e-05 -5.17581e-07 0)
(-1.53295e-05 -5.23536e-07 0)
(-1.45549e-05 -5.28243e-07 0)
(-1.3774e-05 -5.31724e-07 0)
(-1.29886e-05 -5.34008e-07 0)
(-1.22006e-05 -5.35097e-07 0)
(-1.14117e-05 -5.34909e-07 0)
(-1.0624e-05 -5.33345e-07 0)
(-9.83952e-06 -5.30375e-07 0)
(-9.06012e-06 -5.2601e-07 0)
(-8.28777e-06 -5.20276e-07 0)
(-7.52441e-06 -5.1317e-07 0)
(-6.77209e-06 -5.04667e-07 0)
(-6.03289e-06 -4.94741e-07 0)
(-5.30892e-06 -4.8337e-07 0)
(-4.60224e-06 -4.7057e-07 0)
(-3.91484e-06 -4.56384e-07 0)
(-3.24863e-06 -4.4086e-07 0)
(-2.60553e-06 -4.24046e-07 0)
(-1.98746e-06 -4.05944e-07 0)
(-1.39642e-06 -3.86486e-07 0)
(-8.34354e-07 -3.65637e-07 0)
(-3.03093e-07 -3.4349e-07 0)
(1.95672e-07 -3.20199e-07 0)
(6.60303e-07 -2.95832e-07 0)
(1.08915e-06 -2.70328e-07 0)
(1.48062e-06 -2.43629e-07 0)
(1.83337e-06 -2.1586e-07 0)
(2.14622e-06 -1.87317e-07 0)
(2.41815e-06 -1.58252e-07 0)
(2.64823e-06 -1.28729e-07 0)
(2.83569e-06 -9.87285e-08 0)
(2.98004e-06 -6.83353e-08 0)
(3.08116e-06 -3.78051e-08 0)
(3.13918e-06 -7.46161e-09 0)
(3.15442e-06 2.24656e-08 0)
(3.12743e-06 5.18388e-08 0)
(3.05927e-06 8.04241e-08 0)
(2.95154e-06 1.07874e-07 0)
(2.80639e-06 1.33817e-07 0)
(2.62652e-06 1.57753e-07 0)
(2.41534e-06 1.7902e-07 0)
(2.17692e-06 1.96934e-07 0)
(1.91629e-06 2.10754e-07 0)
(1.63965e-06 2.19568e-07 0)
(1.35441e-06 2.22326e-07 0)
(1.06938e-06 2.17751e-07 0)
(7.94792e-07 2.04343e-07 0)
(5.42273e-07 1.80631e-07 0)
(3.2451e-07 1.45402e-07 0)
(1.54212e-07 9.84688e-08 0)
(4.37818e-08 4.3183e-08 0)
(2.47487e-09 -4.08392e-09 0)
(-7.73035e-09 -5.15905e-08 0)
(3.74393e-08 -2.07346e-07 0)
(2.05837e-07 -3.67028e-07 0)
(4.8245e-07 -4.83633e-07 0)
(8.30735e-07 -5.45621e-07 0)
(1.21361e-06 -5.69426e-07 0)
(1.61136e-06 -5.69035e-07 0)
(2.00814e-06 -5.54279e-07 0)
(2.39115e-06 -5.26516e-07 0)
(2.74889e-06 -4.87976e-07 0)
(3.07194e-06 -4.38889e-07 0)
(3.35376e-06 -3.80841e-07 0)
(3.58696e-06 -3.15061e-07 0)
(3.76571e-06 -2.4313e-07 0)
(3.88593e-06 -1.65433e-07 0)
(3.94275e-06 -8.37201e-08 0)
(3.9339e-06 1.05105e-09 0)
(3.85772e-06 8.80014e-08 0)
(3.71198e-06 1.7604e-07 0)
(3.49651e-06 2.64427e-07 0)
(3.21118e-06 3.5284e-07 0)
(2.85569e-06 4.40459e-07 0)
(2.43122e-06 5.26682e-07 0)
(1.93899e-06 6.11314e-07 0)
(1.38012e-06 6.93911e-07 0)
(7.56694e-07 7.73781e-07 0)
(7.10538e-08 8.50685e-07 0)
(-6.74786e-07 9.24451e-07 0)
(-1.47851e-06 9.94824e-07 0)
(-2.33723e-06 1.06187e-06 0)
(-3.24824e-06 1.12562e-06 0)
(-4.20871e-06 1.18563e-06 0)
(-5.21528e-06 1.24164e-06 0)
(-6.2646e-06 1.29356e-06 0)
(-7.35351e-06 1.34106e-06 0)
(-8.47878e-06 1.38416e-06 0)
(-9.63696e-06 1.42324e-06 0)
(-1.08247e-05 1.45826e-06 0)
(-1.20388e-05 1.48903e-06 0)
(-1.32755e-05 1.51556e-06 0)
(-1.45314e-05 1.53783e-06 0)
(-1.58032e-05 1.5557e-06 0)
(-1.70875e-05 1.56924e-06 0)
(-1.83808e-05 1.57874e-06 0)
(-1.96799e-05 1.58425e-06 0)
(-2.09814e-05 1.58569e-06 0)
(-2.2282e-05 1.58318e-06 0)
(-2.35786e-05 1.57674e-06 0)
(-2.4868e-05 1.56639e-06 0)
(-2.61472e-05 1.55217e-06 0)
(-2.7413e-05 1.53422e-06 0)
(-2.86627e-05 1.51273e-06 0)
(-2.98936e-05 1.48789e-06 0)
(-3.11027e-05 1.45976e-06 0)
(-3.22875e-05 1.42836e-06 0)
(-3.34451e-05 1.39385e-06 0)
(-3.45732e-05 1.35637e-06 0)
(-3.56695e-05 1.31604e-06 0)
(-3.67318e-05 1.27301e-06 0)
(-3.77576e-05 1.22734e-06 0)
(-3.8745e-05 1.17907e-06 0)
(-3.96921e-05 1.12831e-06 0)
(-4.05969e-05 1.07528e-06 0)
(-4.14577e-05 1.02027e-06 0)
(-4.22727e-05 9.63456e-07 0)
(-4.30404e-05 9.04883e-07 0)
(-4.37594e-05 8.44616e-07 0)
(-4.44282e-05 7.82805e-07 0)
(-4.50456e-05 7.19592e-07 0)
(-4.56105e-05 6.5509e-07 0)
(-4.6122e-05 5.89393e-07 0)
(-4.65791e-05 5.22626e-07 0)
(-4.69809e-05 4.54903e-07 0)
(-4.73266e-05 3.86293e-07 0)
(-4.76156e-05 3.16903e-07 0)
(-4.78474e-05 2.46899e-07 0)
(-4.80217e-05 1.76451e-07 0)
(-4.81382e-05 1.05696e-07 0)
(-4.81965e-05 3.47406e-08 0)
(-4.81968e-05 -3.62664e-08 0)
(-4.8139e-05 -1.07166e-07 0)
(-4.80234e-05 -1.77862e-07 0)
(-4.785e-05 -2.48244e-07 0)
(-4.76191e-05 -3.18172e-07 0)
(-4.73312e-05 -3.87482e-07 0)
(-4.69869e-05 -4.55937e-07 0)
(-4.65871e-05 -5.23352e-07 0)
(-4.61325e-05 -5.89679e-07 0)
(-4.56238e-05 -6.54851e-07 0)
(-4.50619e-05 -7.18764e-07 0)
(-4.44479e-05 -7.81338e-07 0)
(-4.3783e-05 -8.42446e-07 0)
(-4.30687e-05 -9.01924e-07 0)
(-4.23062e-05 -9.59641e-07 0)
(-4.14969e-05 -1.01546e-06 0)
(-4.06425e-05 -1.06926e-06 0)
(-3.97446e-05 -1.12096e-06 0)
(-3.88049e-05 -1.17048e-06 0)
(-3.78254e-05 -1.21769e-06 0)
(-3.68082e-05 -1.26248e-06 0)
(-3.5755e-05 -1.30476e-06 0)
(-3.46681e-05 -1.34439e-06 0)
(-3.35495e-05 -1.38125e-06 0)
(-3.24018e-05 -1.41527e-06 0)
(-3.12275e-05 -1.44632e-06 0)
(-3.00291e-05 -1.47424e-06 0)
(-2.8809e-05 -1.4989e-06 0)
(-2.75697e-05 -1.52019e-06 0)
(-2.63141e-05 -1.53805e-06 0)
(-2.5045e-05 -1.55241e-06 0)
(-2.37653e-05 -1.5632e-06 0)
(-2.2478e-05 -1.57032e-06 0)
(-2.11859e-05 -1.5737e-06 0)
(-1.98922e-05 -1.57332e-06 0)
(-1.85999e-05 -1.56912e-06 0)
(-1.73122e-05 -1.56105e-06 0)
(-1.60323e-05 -1.54899e-06 0)
(-1.47636e-05 -1.53287e-06 0)
(-1.3509e-05 -1.51264e-06 0)
(-1.2272e-05 -1.48831e-06 0)
(-1.10557e-05 -1.45993e-06 0)
(-9.86338e-06 -1.42754e-06 0)
(-8.69844e-06 -1.39113e-06 0)
(-7.56417e-06 -1.35069e-06 0)
(-6.46376e-06 -1.30624e-06 0)
(-5.40031e-06 -1.25787e-06 0)
(-4.37686e-06 -1.20568e-06 0)
(-3.39653e-06 -1.14974e-06 0)
(-2.46242e-06 -1.09008e-06 0)
(-1.5775e-06 -1.02678e-06 0)
(-7.44489e-07 -9.59986e-07 0)
(3.4066e-08 -8.89936e-07 0)
(7.5571e-07 -8.16828e-07 0)
(1.41804e-06 -7.40808e-07 0)
(2.01882e-06 -6.62074e-07 0)
(2.55612e-06 -5.80975e-07 0)
(3.02836e-06 -4.97974e-07 0)
(3.43425e-06 -4.13502e-07 0)
(3.77273e-06 -3.27922e-07 0)
(4.04304e-06 -2.41625e-07 0)
(4.24482e-06 -1.551e-07 0)
(4.37825e-06 -6.89558e-08 0)
(4.44399e-06 1.61118e-08 0)
(4.44323e-06 9.93835e-08 0)
(4.37783e-06 1.80048e-07 0)
(4.25042e-06 2.57131e-07 0)
(4.06443e-06 3.29545e-07 0)
(3.82417e-06 3.95995e-07 0)
(3.53503e-06 4.54903e-07 0)
(3.20346e-06 5.04507e-07 0)
(2.83715e-06 5.42826e-07 0)
(2.4454e-06 5.67557e-07 0)
(2.03913e-06 5.7612e-07 0)
(1.63091e-06 5.65649e-07 0)
(1.23509e-06 5.3308e-07 0)
(8.67446e-07 4.7559e-07 0)
(5.44574e-07 3.91435e-07 0)
(2.82548e-07 2.81559e-07 0)
(9.90445e-08 1.53293e-07 0)
(1.46532e-08 3.06441e-08 0)
(1.25981e-08 -7.00608e-08 0)
(9.22e-08 -3.32686e-07 0)
(3.01e-07 -6.14184e-07 0)
(6.2355e-07 -8.24915e-07 0)
(1.02634e-06 -9.5009e-07 0)
(1.47794e-06 -1.00629e-06 0)
(1.9496e-06 -1.01646e-06 0)
(2.42076e-06 -9.92236e-07 0)
(2.87426e-06 -9.42165e-07 0)
(3.29468e-06 -8.69268e-07 0)
(3.67042e-06 -7.75765e-07 0)
(3.99016e-06 -6.64502e-07 0)
(4.24507e-06 -5.38189e-07 0)
(4.42812e-06 -3.98877e-07 0)
(4.53262e-06 -2.49778e-07 0)
(4.55351e-06 -9.2527e-08 0)
(4.48715e-06 7.09913e-08 0)
(4.3305e-06 2.38374e-07 0)
(4.08171e-06 4.08346e-07 0)
(3.73989e-06 5.79459e-07 0)
(3.30458e-06 7.50125e-07 0)
(2.77592e-06 9.19447e-07 0)
(2.15508e-06 1.08649e-06 0)
(1.44354e-06 1.25019e-06 0)
(6.42923e-07 1.41002e-06 0)
(-2.44339e-07 1.56533e-06 0)
(-1.21527e-06 1.71527e-06 0)
(-2.26695e-06 1.85914e-06 0)
(-3.39598e-06 1.99653e-06 0)
(-4.59856e-06 2.12703e-06 0)
(-5.87113e-06 2.2503e-06 0)
(-7.20992e-06 2.36622e-06 0)
(-8.61068e-06 2.47475e-06 0)
(-1.00693e-05 2.57554e-06 0)
(-1.15813e-05 2.66821e-06 0)
(-1.3142e-05 2.75269e-06 0)
(-1.47466e-05 2.82891e-06 0)
(-1.63907e-05 2.89664e-06 0)
(-1.80698e-05 2.95606e-06 0)
(-1.97793e-05 3.00733e-06 0)
(-2.15146e-05 3.05027e-06 0)
(-2.32711e-05 3.08487e-06 0)
(-2.50439e-05 3.1112e-06 0)
(-2.68284e-05 3.12932e-06 0)
(-2.86203e-05 3.13935e-06 0)
(-3.04149e-05 3.14146e-06 0)
(-3.22079e-05 3.13581e-06 0)
(-3.39951e-05 3.12257e-06 0)
(-3.57721e-05 3.10182e-06 0)
(-3.75346e-05 3.07364e-06 0)
(-3.92786e-05 3.03815e-06 0)
(-4.1e-05 2.99556e-06 0)
(-4.26952e-05 2.94619e-06 0)
(-4.43605e-05 2.89037e-06 0)
(-4.59921e-05 2.82834e-06 0)
(-4.75865e-05 2.76024e-06 0)
(-4.91403e-05 2.68618e-06 0)
(-5.065e-05 2.60637e-06 0)
(-5.21127e-05 2.52113e-06 0)
(-5.35255e-05 2.43075e-06 0)
(-5.48854e-05 2.33541e-06 0)
(-5.61899e-05 2.23529e-06 0)
(-5.74361e-05 2.13072e-06 0)
(-5.86217e-05 2.02206e-06 0)
(-5.97444e-05 1.90962e-06 0)
(-6.08022e-05 1.79367e-06 0)
(-6.1793e-05 1.67444e-06 0)
(-6.27148e-05 1.55215e-06 0)
(-6.35657e-05 1.42694e-06 0)
(-6.43443e-05 1.29898e-06 0)
(-6.50492e-05 1.16856e-06 0)
(-6.56792e-05 1.03603e-06 0)
(-6.62331e-05 9.01718e-07 0)
(-6.671e-05 7.65861e-07 0)
(-6.71089e-05 6.286e-07 0)
(-6.74291e-05 4.90119e-07 0)
(-6.76701e-05 3.50705e-07 0)
(-6.78316e-05 2.107e-07 0)
(-6.79132e-05 7.03593e-08 0)
(-6.79148e-05 -7.01207e-08 0)
(-6.78365e-05 -2.10473e-07 0)
(-6.76786e-05 -3.50363e-07 0)
(-6.74413e-05 -4.89444e-07 0)
(-6.71251e-05 -6.27456e-07 0)
(-6.67304e-05 -7.64287e-07 0)
(-6.62581e-05 -8.99746e-07 0)
(-6.57093e-05 -1.03346e-06 0)
(-6.50849e-05 -1.16506e-06 0)
(-6.43861e-05 -1.29429e-06 0)
(-6.36141e-05 -1.42097e-06 0)
(-6.27703e-05 -1.54496e-06 0)
(-6.18565e-05 -1.66608e-06 0)
(-6.08744e-05 -1.78405e-06 0)
(-5.98259e-05 -1.89858e-06 0)
(-5.87129e-05 -2.00938e-06 0)
(-5.75377e-05 -2.11619e-06 0)
(-5.63025e-05 -2.21881e-06 0)
(-5.50097e-05 -2.31711e-06 0)
(-5.3662e-05 -2.41088e-06 0)
(-5.22621e-05 -2.49985e-06 0)
(-5.08125e-05 -2.58375e-06 0)
(-4.93163e-05 -2.66235e-06 0)
(-4.77765e-05 -2.73549e-06 0)
(-4.61965e-05 -2.803e-06 0)
(-4.45795e-05 -2.86465e-06 0)
(-4.2929e-05 -2.9201e-06 0)
(-4.12484e-05 -2.96914e-06 0)
(-3.95412e-05 -3.0116e-06 0)
(-3.78112e-05 -3.04738e-06 0)
(-3.60622e-05 -3.07635e-06 0)
(-3.42981e-05 -3.09832e-06 0)
(-3.25231e-05 -3.11308e-06 0)
(-3.07411e-05 -3.12046e-06 0)
(-2.89563e-05 -3.12035e-06 0)
(-2.7173e-05 -3.11268e-06 0)
(-2.53954e-05 -3.0974e-06 0)
(-2.36278e-05 -3.0744e-06 0)
(-2.18746e-05 -3.04354e-06 0)
(-2.01402e-05 -3.00469e-06 0)
(-1.84292e-05 -2.95779e-06 0)
(-1.67458e-05 -2.90289e-06 0)
(-1.50945e-05 -2.84008e-06 0)
(-1.34797e-05 -2.76944e-06 0)
(-1.19059e-05 -2.69101e-06 0)
(-1.03774e-05 -2.60477e-06 0)
(-8.89858e-06 -2.51077e-06 0)
(-7.4736e-06 -2.40922e-06 0)
(-6.10653e-06 -2.30036e-06 0)
(-4.80142e-06 -2.1844e-06 0)
(-3.56221e-06 -2.06148e-06 0)
(-2.3927e-06 -1.9318e-06 0)
(-1.29637e-06 -1.7957e-06 0)
(-2.76451e-07 -1.65368e-06 0)
(6.64064e-07 -1.50625e-06 0)
(1.5223e-06 -1.35389e-06 0)
(2.29558e-06 -1.19708e-06 0)
(2.98169e-06 -1.03646e-06 0)
(3.57895e-06 -8.72854e-07 0)
(4.08615e-06 -7.07142e-07 0)
(4.50242e-06 -5.40239e-07 0)
(4.8274e-06 -3.73123e-07 0)
(5.06124e-06 -2.06885e-07 0)
(5.20486e-06 -4.28098e-08 0)
(5.26001e-06 1.17631e-07 0)
(5.22931e-06 2.72793e-07 0)
(5.11636e-06 4.20782e-07 0)
(4.92577e-06 5.5949e-07 0)
(4.66313e-06 6.86549e-07 0)
(4.33544e-06 7.99171e-07 0)
(3.95108e-06 8.94169e-07 0)
(3.51997e-06 9.68014e-07 0)
(3.05378e-06 1.01675e-06 0)
(2.56599e-06 1.03603e-06 0)
(2.07185e-06 1.0212e-06 0)
(1.58844e-06 9.67515e-07 0)
(1.13444e-06 8.70829e-07 0)
(7.29183e-07 7.28858e-07 0)
(3.9165e-07 5.43193e-07 0)
(1.45569e-07 3.23149e-07 0)
(2.44688e-08 9.42644e-08 0)
(2.5116e-08 -1.30902e-07 0)
(1.42644e-07 -5.06494e-07 0)
(3.95263e-07 -9.02324e-07 0)
(7.58285e-07 -1.21125e-06 0)
(1.20144e-06 -1.40128e-06 0)
(1.69413e-06 -1.49486e-06 0)
(2.20792e-06 -1.51572e-06 0)
(2.71849e-06 -1.48145e-06 0)
(3.20477e-06 -1.40281e-06 0)
(3.6508e-06 -1.28585e-06 0)
(4.04026e-06 -1.13607e-06 0)
(4.36103e-06 -9.57705e-07 0)
(4.60242e-06 -7.54573e-07 0)
(4.75462e-06 -5.31139e-07 0)
(4.81094e-06 -2.91317e-07 0)
(4.76518e-06 -3.84252e-08 0)
(4.61205e-06 2.24193e-07 0)
(4.34868e-06 4.9357e-07 0)
(3.9724e-06 7.67276e-07 0)
(3.48176e-06 1.04284e-06 0)
(2.87656e-06 1.31807e-06 0)
(2.1569e-06 1.59127e-06 0)
(1.32383e-06 1.86085e-06 0)
(3.79344e-07 2.12511e-06 0)
(-6.74348e-07 2.3829e-06 0)
(-1.8346e-06 2.63336e-06 0)
(-3.09805e-06 2.87533e-06 0)
(-4.46101e-06 3.10795e-06 0)
(-5.91948e-06 3.33059e-06 0)
(-7.46892e-06 3.54224e-06 0)
(-9.1046e-06 3.7421e-06 0)
(-1.08215e-05 3.92989e-06 0)
(-1.26147e-05 4.10518e-06 0)
(-1.44791e-05 4.26768e-06 0)
(-1.64092e-05 4.41737e-06 0)
(-1.83994e-05 4.55411e-06 0)
(-2.04441e-05 4.67749e-06 0)
(-2.25375e-05 4.78723e-06 0)
(-2.46736e-05 4.88338e-06 0)
(-2.68469e-05 4.96586e-06 0)
(-2.90516e-05 5.03471e-06 0)
(-3.12821e-05 5.09009e-06 0)
(-3.35324e-05 5.13217e-06 0)
(-3.57968e-05 5.16095e-06 0)
(-3.80696e-05 5.17653e-06 0)
(-4.03453e-05 5.17909e-06 0)
(-4.26182e-05 5.16883e-06 0)
(-4.48831e-05 5.14604e-06 0)
(-4.71346e-05 5.11102e-06 0)
(-4.93675e-05 5.06409e-06 0)
(-5.15766e-05 5.00544e-06 0)
(-5.3757e-05 4.93524e-06 0)
(-5.59037e-05 4.85382e-06 0)
(-5.80122e-05 4.76163e-06 0)
(-6.00779e-05 4.65916e-06 0)
(-6.20964e-05 4.54678e-06 0)
(-6.40634e-05 4.42476e-06 0)
(-6.59747e-05 4.29344e-06 0)
(-6.78263e-05 4.15318e-06 0)
(-6.96146e-05 4.0044e-06 0)
(-7.13361e-05 3.84749e-06 0)
(-7.29874e-05 3.68291e-06 0)
(-7.4565e-05 3.51111e-06 0)
(-7.60659e-05 3.33245e-06 0)
(-7.74872e-05 3.14732e-06 0)
(-7.88263e-05 2.95624e-06 0)
(-8.00806e-05 2.75972e-06 0)
(-8.12476e-05 2.5582e-06 0)
(-8.23253e-05 2.35198e-06 0)
(-8.33115e-05 2.14136e-06 0)
(-8.42045e-05 1.92668e-06 0)
(-8.50027e-05 1.70842e-06 0)
(-8.57045e-05 1.48708e-06 0)
(-8.6309e-05 1.26316e-06 0)
(-8.68149e-05 1.03705e-06 0)
(-8.72214e-05 8.09068e-07 0)
(-8.75277e-05 5.7961e-07 0)
(-8.77334e-05 3.49176e-07 0)
(-8.78381e-05 1.18228e-07 0)
(-8.78417e-05 -1.12888e-07 0)
(-8.77443e-05 -3.438e-07 0)
(-8.75461e-05 -5.7403e-07 0)
(-8.72474e-05 -8.03028e-07 0)
(-8.68489e-05 -1.03028e-06 0)
(-8.63513e-05 -1.25546e-06 0)
(-8.57557e-05 -1.4783e-06 0)
(-8.5063e-05 -1.69839e-06 0)
(-8.42747e-05 -1.9152e-06 0)
(-8.3392e-05 -2.1283e-06 0)
(-8.24169e-05 -2.33724e-06 0)
(-8.13511e-05 -2.54168e-06 0)
(-8.01966e-05 -2.74128e-06 0)
(-7.89556e-05 -2.93568e-06 0)
(-7.76304e-05 -3.12445e-06 0)
(-7.62236e-05 -3.30718e-06 0)
(-7.47379e-05 -3.48343e-06 0)
(-7.31762e-05 -3.65282e-06 0)
(-7.15416e-05 -3.81504e-06 0)
(-6.98374e-05 -3.96978e-06 0)
(-6.80667e-05 -4.11661e-06 0)
(-6.62332e-05 -4.2551e-06 0)
(-6.43404e-05 -4.3849e-06 0)
(-6.23924e-05 -4.50568e-06 0)
(-6.03931e-05 -4.61717e-06 0)
(-5.83467e-05 -4.71902e-06 0)
(-5.62575e-05 -4.81081e-06 0)
(-5.41298e-05 -4.89215e-06 0)
(-5.19681e-05 -4.96276e-06 0)
(-4.97773e-05 -5.02237e-06 0)
(-4.75619e-05 -5.07078e-06 0)
(-4.5327e-05 -5.10774e-06 0)
(-4.30774e-05 -5.13297e-06 0)
(-4.08185e-05 -5.14621e-06 0)
(-3.85553e-05 -5.14723e-06 0)
(-3.62932e-05 -5.13582e-06 0)
(-3.40377e-05 -5.11187e-06 0)
(-3.17939e-05 -5.07526e-06 0)
(-2.95674e-05 -5.02589e-06 0)
(-2.73637e-05 -4.96362e-06 0)
(-2.51883e-05 -4.88835e-06 0)
(-2.30467e-05 -4.80005e-06 0)
(-2.09446e-05 -4.69877e-06 0)
(-1.88874e-05 -4.58462e-06 0)
(-1.68806e-05 -4.45776e-06 0)
(-1.49295e-05 -4.31831e-06 0)
(-1.30395e-05 -4.16635e-06 0)
(-1.1216e-05 -4.00209e-06 0)
(-9.46403e-06 -3.82585e-06 0)
(-7.78849e-06 -3.63804e-06 0)
(-6.19414e-06 -3.43911e-06 0)
(-4.68562e-06 -3.22945e-06 0)
(-3.26734e-06 -3.00951e-06 0)
(-1.94337e-06 -2.77994e-06 0)
(-7.17412e-07 -2.54157e-06 0)
(4.07194e-07 -2.29537e-06 0)
(1.42733e-06 -2.04227e-06 0)
(2.34024e-06 -1.78324e-06 0)
(3.14384e-06 -1.51944e-06 0)
(3.83662e-06 -1.25221e-06 0)
(4.41766e-06 -9.83106e-07 0)
(4.8866e-06 -7.13836e-07 0)
(5.24377e-06 -4.46252e-07 0)
(5.49036e-06 -1.82412e-07 0)
(5.62854e-06 7.53639e-08 0)
(5.66152e-06 3.24483e-07 0)
(5.59369e-06 5.61973e-07 0)
(5.43062e-06 7.84455e-07 0)
(5.17912e-06 9.88196e-07 0)
(4.84743e-06 1.16898e-06 0)
(4.44542e-06 1.32208e-06 0)
(3.98471e-06 1.44227e-06 0)
(3.47874e-06 1.52375e-06 0)
(2.9429e-06 1.56029e-06 0)
(2.39435e-06 1.54541e-06 0)
(1.85214e-06 1.47271e-06 0)
(1.33707e-06 1.33664e-06 0)
(8.70817e-07 1.13393e-06 0)
(4.75315e-07 8.65603e-07 0)
(1.80416e-07 5.40273e-07 0)
(3.13888e-08 1.79874e-07 0)
(3.19326e-08 -2.1483e-07 0)
(1.785e-07 -7.2204e-07 0)
(4.70496e-07 -1.23235e-06 0)
(8.68181e-07 -1.63221e-06 0)
(1.33677e-06 -1.88503e-06 0)
(1.85061e-06 -2.01185e-06 0)
(2.38123e-06 -2.03993e-06 0)
(2.90181e-06 -1.99007e-06 0)
(3.39132e-06 -1.87465e-06 0)
(3.82969e-06 -1.70439e-06 0)
(4.20079e-06 -1.4861e-06 0)
(4.4905e-06 -1.22652e-06 0)
(4.68621e-06 -9.32021e-07 0)
(4.77772e-06 -6.0797e-07 0)
(4.75669e-06 -2.60047e-07 0)
(4.61613e-06 1.0646e-07 0)
(4.35059e-06 4.87291e-07 0)
(3.95611e-06 8.78111e-07 0)
(3.42986e-06 1.27516e-06 0)
(2.7701e-06 1.67525e-06 0)
(1.97639e-06 2.07512e-06 0)
(1.04901e-06 2.47228e-06 0)
(-1.10217e-08 2.86437e-06 0)
(-1.20159e-06 3.24913e-06 0)
(-2.51984e-06 3.62459e-06 0)
(-3.96271e-06 3.98916e-06 0)
(-5.52636e-06 4.34127e-06 0)
(-7.20635e-06 4.67973e-06 0)
(-8.99824e-06 5.00358e-06 0)
(-1.0897e-05 5.31169e-06 0)
(-1.2897e-05 5.6032e-06 0)
(-1.49923e-05 5.87732e-06 0)
(-1.71772e-05 6.13313e-06 0)
(-1.94452e-05 6.37019e-06 0)
(-2.17899e-05 6.58831e-06 0)
(-2.4205e-05 6.78711e-06 0)
(-2.66839e-05 6.96643e-06 0)
(-2.92197e-05 7.12612e-06 0)
(-3.18056e-05 7.26595e-06 0)
(-3.44348e-05 7.38575e-06 0)
(-3.71004e-05 7.48553e-06 0)
(-3.97955e-05 7.56547e-06 0)
(-4.25133e-05 7.62572e-06 0)
(-4.52471e-05 7.66647e-06 0)
(-4.79902e-05 7.68795e-06 0)
(-5.07358e-05 7.69039e-06 0)
(-5.34774e-05 7.67398e-06 0)
(-5.62085e-05 7.63904e-06 0)
(-5.89228e-05 7.58598e-06 0)
(-6.1614e-05 7.51531e-06 0)
(-6.42763e-05 7.42748e-06 0)
(-6.69035e-05 7.32282e-06 0)
(-6.949e-05 7.20177e-06 0)
(-7.203e-05 7.06483e-06 0)
(-7.45181e-05 6.91255e-06 0)
(-7.69491e-05 6.74549e-06 0)
(-7.93179e-05 6.56424e-06 0)
(-8.16196e-05 6.36936e-06 0)
(-8.38494e-05 6.16133e-06 0)
(-8.60029e-05 5.94066e-06 0)
(-8.80758e-05 5.70797e-06 0)
(-9.0064e-05 5.46397e-06 0)
(-9.19636e-05 5.20934e-06 0)
(-9.3771e-05 4.94461e-06 0)
(-9.54826e-05 4.67032e-06 0)
(-9.70951e-05 4.38712e-06 0)
(-9.86054e-05 4.09565e-06 0)
(-0.000100011 3.79659e-06 0)
(-0.000101309 3.49055e-06 0)
(-0.000102497 3.17812e-06 0)
(-0.000103573 2.85987e-06 0)
(-0.000104534 2.53638e-06 0)
(-0.00010538 2.20827e-06 0)
(-0.000106109 1.8762e-06 0)
(-0.000106719 1.54083e-06 0)
(-0.00010721 1.20277e-06 0)
(-0.00010758 8.62628e-07 0)
(-0.000107829 5.21038e-07 0)
(-0.000107957 1.78653e-07 0)
(-0.000107963 -1.63931e-07 0)
(-0.000107848 -5.061e-07 0)
(-0.000107611 -8.47215e-07 0)
(-0.000107253 -1.18664e-06 0)
(-0.000106775 -1.52369e-06 0)
(-0.000106178 -1.85773e-06 0)
(-0.000105463 -2.18817e-06 0)
(-0.000104632 -2.51444e-06 0)
(-0.000103685 -2.8359e-06 0)
(-0.000102625 -3.15198e-06 0)
(-0.000101453 -3.46208e-06 0)
(-0.000100172 -3.76556e-06 0)
(-9.87842e-05 -4.06185e-06 0)
(-9.72924e-05 -4.35039e-06 0)
(-9.56992e-05 -4.63055e-06 0)
(-9.40077e-05 -4.90176e-06 0)
(-9.22211e-05 -5.16347e-06 0)
(-9.03429e-05 -5.41512e-06 0)
(-8.83769e-05 -5.65615e-06 0)
(-8.63268e-05 -5.88604e-06 0)
(-8.41965e-05 -6.1042e-06 0)
(-8.19903e-05 -6.31005e-06 0)
(-7.97126e-05 -6.5031e-06 0)
(-7.73682e-05 -6.68284e-06 0)
(-7.49618e-05 -6.84875e-06 0)
(-7.24983e-05 -7.00036e-06 0)
(-6.99827e-05 -7.13714e-06 0)
(-6.74203e-05 -7.25862e-06 0)
(-6.48166e-05 -7.36434e-06 0)
(-6.21772e-05 -7.45389e-06 0)
(-5.95077e-05 -7.52684e-06 0)
(-5.68141e-05 -7.58283e-06 0)
(-5.41023e-05 -7.62152e-06 0)
(-5.13782e-05 -7.6426e-06 0)
(-4.86482e-05 -7.64575e-06 0)
(-4.59187e-05 -7.63069e-06 0)
(-4.31959e-05 -7.59714e-06 0)
(-4.04864e-05 -7.54489e-06 0)
(-3.77965e-05 -7.47382e-06 0)
(-3.51328e-05 -7.38382e-06 0)
(-3.25018e-05 -7.27481e-06 0)
(-2.99101e-05 -7.14678e-06 0)
(-2.73644e-05 -6.99974e-06 0)
(-2.48711e-05 -6.83376e-06 0)
(-2.24368e-05 -6.64903e-06 0)
(-2.00677e-05 -6.44581e-06 0)
(-1.77702e-05 -6.22438e-06 0)
(-1.55504e-05 -5.98505e-06 0)
(-1.34146e-05 -5.7282e-06 0)
(-1.13686e-05 -5.45436e-06 0)
(-9.41779e-06 -5.16424e-06 0)
(-7.5676e-06 -4.8586e-06 0)
(-5.82314e-06 -4.53821e-06 0)
(-4.18926e-06 -4.20394e-06 0)
(-2.67039e-06 -3.85688e-06 0)
(-1.27048e-06 -3.49836e-06 0)
(6.98653e-09 -3.12989e-06 0)
(1.15897e-06 -2.75302e-06 0)
(2.18301e-06 -2.36943e-06 0)
(3.07736e-06 -1.98102e-06 0)
(3.84089e-06 -1.59e-06 0)
(4.47327e-06 -1.19885e-06 0)
(4.97497e-06 -8.10325e-07 0)
(5.34745e-06 -4.27448e-07 0)
(5.59328e-06 -5.35906e-08 0)
(5.71616e-06 3.07533e-07 0)
(5.72108e-06 6.51756e-07 0)
(5.61437e-06 9.74348e-07 0)
(5.40373e-06 1.27006e-06 0)
(5.09846e-06 1.53307e-06 0)
(4.70961e-06 1.75694e-06 0)
(4.25e-06 1.93464e-06 0)
(3.73438e-06 2.05853e-06 0)
(3.17952e-06 2.12043e-06 0)
(2.60405e-06 2.11191e-06 0)
(2.02853e-06 2.02479e-06 0)
(1.4755e-06 1.85184e-06 0)
(9.68787e-07 1.5882e-06 0)
(5.33214e-07 1.23306e-06 0)
(2.04054e-07 7.9215e-07 0)
(3.58309e-08 2.80831e-07 0)
(3.63407e-08 -3.15923e-07 0)
(2.00862e-07 -9.69148e-07 0)
(5.19264e-07 -1.59232e-06 0)
(9.36616e-07 -2.07641e-06 0)
(1.41762e-06 -2.3846e-06 0)
(1.9344e-06 -2.53762e-06 0)
(2.45933e-06 -2.5659e-06 0)
(2.96704e-06 -2.4911e-06 0)
(3.43288e-06 -2.33049e-06 0)
(3.83746e-06 -2.09559e-06 0)
(4.16277e-06 -1.79662e-06 0)
(4.39324e-06 -1.44262e-06 0)
(4.51645e-06 -1.0418e-06 0)
(4.52051e-06 -6.01658e-07 0)
(4.39628e-06 -1.29587e-07 0)
(4.13667e-06 3.67766e-07 0)
(3.73523e-06 8.84302e-07 0)
(3.18777e-06 1.41444e-06 0)
(2.49127e-06 1.95319e-06 0)
(1.64358e-06 2.49606e-06 0)
(6.44284e-07 3.03892e-06 0)
(-5.06177e-07 3.57822e-06 0)
(-1.80682e-06 4.11071e-06 0)
(-3.25535e-06 4.6336e-06 0)
(-4.84864e-06 5.14424e-06 0)
(-6.58321e-06 5.64023e-06 0)
(-8.4547e-06 6.11958e-06 0)
(-1.0458e-05 6.58031e-06 0)
(-1.25881e-05 7.02081e-06 0)
(-1.48391e-05 7.4399e-06 0)
(-1.72049e-05 7.83645e-06 0)
(-1.9679e-05 8.20931e-06 0)
(-2.22546e-05 8.55759e-06 0)
(-2.49244e-05 8.88058e-06 0)
(-2.76812e-05 9.17757e-06 0)
(-3.05176e-05 9.44798e-06 0)
(-3.34259e-05 9.69163e-06 0)
(-3.63985e-05 9.90837e-06 0)
(-3.94276e-05 1.00979e-05 0)
(-4.25055e-05 1.02601e-05 0)
(-4.56242e-05 1.03951e-05 0)
(-4.87757e-05 1.05028e-05 0)
(-5.19523e-05 1.05835e-05 0)
(-5.51462e-05 1.06373e-05 0)
(-5.83496e-05 1.06646e-05 0)
(-6.15551e-05 1.06658e-05 0)
(-6.4755e-05 1.06412e-05 0)
(-6.79419e-05 1.05912e-05 0)
(-7.11083e-05 1.05164e-05 0)
(-7.42471e-05 1.04172e-05 0)
(-7.73514e-05 1.02943e-05 0)
(-8.04145e-05 1.01482e-05 0)
(-8.34296e-05 9.97977e-06 0)