/*--------------------------------*- C++ -*----------------------------------*\
  =========                 |
  \\      /  F ield         | OpenFOAM: The Open Source CFD Toolbox
   \\    /   O peration     | Website:  https://openfoam.org
    \\  /    A nd           | Version:  7
     \\/     M anipulation  |
\*---------------------------------------------------------------------------*/
FoamFile
{
    version     2.0;
    format      ascii;
    class       volScalarField;
    location    "0.3375";
    object      p;
}
// * * * * * * * * * * * * * * * * * * * * * * * * * * * * * * * * * * * * * //

dimensions      [0 2 -2 0 0 0 0];

internalField   nonuniform List<scalar> 
51200
(
-1.11094e-06
-2.3831e-06
-1.29596e-06
1.9625e-06
6.90819e-06
1.33451e-05
2.08417e-05
2.92095e-05
3.82298e-05
4.76917e-05
5.73216e-05
6.69654e-05
7.64772e-05
8.57474e-05
9.46515e-05
0.000103098
0.000111004
0.000118287
0.000124894
0.000130774
0.000135873
0.000140151
0.000143588
0.000146141
0.00014778
0.000148497
0.00014828
0.000147118
0.000144998
0.000141923
0.000137894
0.000132909
0.000126968
0.000120076
0.000112239
0.000103463
9.37581e-05
8.31335e-05
7.16031e-05
5.91852e-05
4.58971e-05
3.1753e-05
1.67684e-05
9.62908e-07
-1.56429e-05
-3.30302e-05
-5.11815e-05
-7.00773e-05
-8.96948e-05
-0.00011001
-0.000131
-0.000152642
-0.000174915
-0.000197796
-0.000221262
-0.000245294
-0.000269869
-0.000294965
-0.000320559
-0.00034663
-0.000373157
-0.00040012
-0.000427497
-0.000455266
-0.000483404
-0.000511885
-0.000540687
-0.00056979
-0.000599173
-0.000628813
-0.000658687
-0.000688772
-0.000719044
-0.000749484
-0.000780071
-0.000810781
-0.000841593
-0.000872484
-0.000903433
-0.000934418
-0.000965418
-0.000996409
-0.00102737
-0.00105827
-0.00108908
-0.0011198
-0.0011504
-0.00118085
-0.00121114
-0.00124123
-0.00127111
-0.00130075
-0.00133014
-0.00135925
-0.00138807
-0.00141657
-0.00144472
-0.00147251
-0.0014999
-0.00152689
-0.00155344
-0.00157954
-0.00160516
-0.00163026
-0.00165484
-0.00167887
-0.00170234
-0.00172522
-0.00174749
-0.00176912
-0.00179008
-0.00181037
-0.00182996
-0.00184883
-0.00186695
-0.00188431
-0.00190088
-0.00191666
-0.00193162
-0.00194574
-0.00195899
-0.00197136
-0.00198285
-0.00199344
-0.00200311
-0.00201186
-0.00201966
-0.00202653
-0.00203245
-0.00203742
-0.00204141
-0.00204444
-0.00204652
-0.00204764
-0.0020478
-0.00204701
-0.00204533
-0.00204277
-0.00203931
-0.00203496
-0.00202979
-0.0020239
-0.00201727
-0.00200995
-0.00200202
-0.00199356
-0.00198464
-0.00197537
-0.00196586
-0.00195624
-0.00194667
-0.00193732
-0.00192839
-0.00192009
-0.00191267
-0.00190641
-0.00190162
-0.00189859
-0.00189759
-0.00189827
-1.20029e-06
-1.77048e-06
-5.93498e-07
2.30755e-06
6.60306e-06
1.22044e-05
1.87517e-05
2.60974e-05
3.39547e-05
4.2273e-05
5.07687e-05
5.93423e-05
6.78081e-05
7.60692e-05
8.40234e-05
9.15618e-05
9.86276e-05
0.000105132
0.000111013
0.000116226
0.000120713
0.000124427
0.000127349
0.000129446
0.000130681
0.000131043
0.000130523
0.000129102
0.000126763
0.000123513
0.000119354
0.000114276
0.000108275
0.000101358
9.35351e-05
8.48089e-05
7.51821e-05
6.46633e-05
5.32683e-05
4.1014e-05
2.79143e-05
1.39822e-05
-7.65823e-07
-1.63111e-05
-3.2636e-05
-4.97243e-05
-6.75588e-05
-8.6119e-05
-0.000105383
-0.000125329
-0.000145936
-0.000167182
-0.000189045
-0.000211502
-0.000234534
-0.00025812
-0.000282239
-0.00030687
-0.000331991
-0.000357579
-0.000383616
-0.000410083
-0.000436959
-0.00046422
-0.000491842
-0.000519802
-0.000548079
-0.000576654
-0.000605505
-0.000634609
-0.000663944
-0.000693485
-0.000723212
-0.000753105
-0.000783143
-0.000813304
-0.000843564
-0.000873901
-0.000904295
-0.000934727
-0.000965173
-0.00099561
-0.00102601
-0.00105636
-0.00108662
-0.00111678
-0.00114683
-0.00117674
-0.00120648
-0.00123602
-0.00126536
-0.00129446
-0.00132331
-0.0013519
-0.00138019
-0.00140817
-0.0014358
-0.00146307
-0.00148995
-0.00151644
-0.00154251
-0.00156812
-0.00159326
-0.00161789
-0.001642
-0.00166559
-0.00168862
-0.00171109
-0.00173294
-0.00175417
-0.00177474
-0.00179466
-0.00181389
-0.00183242
-0.00185022
-0.00186727
-0.00188357
-0.00189909
-0.00191382
-0.00192771
-0.00194077
-0.00195298
-0.00196433
-0.00197482
-0.00198441
-0.0019931
-0.0020009
-0.0020078
-0.00201378
-0.00201883
-0.00202295
-0.00202616
-0.00202846
-0.00202986
-0.00203033
-0.0020299
-0.00202861
-0.00202648
-0.00202355
-0.0020198
-0.00201527
-0.00201002
-0.00200411
-0.00199757
-0.00199048
-0.00198292
-0.00197496
-0.0019667
-0.00195825
-0.00194973
-0.00194126
-0.00193304
-0.00192522
-0.00191798
-0.00191156
-0.00190614
-0.00190193
-0.00189917
-0.00189811
-0.00189879
-2.2805e-06
-2.73636e-06
-1.53039e-06
1.1553e-06
5.05855e-06
1.01131e-05
1.60137e-05
2.26491e-05
2.97467e-05
3.72403e-05
4.49121e-05
5.26695e-05
6.03433e-05
6.78357e-05
7.50526e-05
8.18853e-05
8.82805e-05
9.41615e-05
9.94555e-05
0.000104121
0.000108114
0.000111379
0.000113881
0.000115598
0.0001165
0.000116565
0.000115782
0.000114137
0.000111614
0.000108214
0.000103937
9.87736e-05
9.27186e-05
8.57783e-05
7.79583e-05
6.92602e-05
5.96877e-05
4.92511e-05
3.79643e-05
2.58402e-05
1.28906e-05
-8.7065e-07
-1.54267e-05
-3.07606e-05
-4.68572e-05
-6.37014e-05
-8.12757e-05
-9.95599e-05
-0.000118533
-0.000138174
-0.000158463
-0.000179379
-0.000200901
-0.000223007
-0.000245678
-0.000268893
-0.000292634
-0.000316876
-0.0003416
-0.000366785
-0.000392413
-0.000418466
-0.00044492
-0.000471753
-0.000498943
-0.000526466
-0.000554303
-0.000582434
-0.000610838
-0.000639491
-0.000668372
-0.000697457
-0.000726726
-0.000756159
-0.000785735
-0.000815431
-0.000845226
-0.000875097
-0.000905026
-0.000934991
-0.00096497
-0.000994939
-0.00102487
-0.00105475
-0.00108455
-0.00111424
-0.00114383
-0.00117327
-0.00120255
-0.00123164
-0.00126052
-0.00128917
-0.00131757
-0.00134571
-0.00137356
-0.00140109
-0.00142829
-0.00145513
-0.00148159
-0.00150766
-0.00153332
-0.00155853
-0.00158326
-0.0016075
-0.00163123
-0.00165445
-0.00167712
-0.00169923
-0.00172073
-0.00174162
-0.00176188
-0.0017815
-0.00180044
-0.00181869
-0.00183622
-0.00185302
-0.00186909
-0.00188441
-0.00189893
-0.00191265
-0.00192556
-0.00193764
-0.00194889
-0.00195929
-0.00196882
-0.00197748
-0.00198528
-0.00199221
-0.00199824
-0.00200338
-0.00200763
-0.00201099
-0.00201346
-0.00201506
-0.00201581
-0.00201572
-0.00201477
-0.00201298
-0.00201044
-0.00200718
-0.00200317
-0.00199846
-0.00199313
-0.00198723
-0.00198082
-0.00197395
-0.00196672
-0.00195923
-0.00195158
-0.00194387
-0.00193623
-0.00192881
-0.00192175
-0.00191524
-0.00190947
-0.00190456
-0.00190071
-0.00189808
-0.00189702
-0.00189763
-5.1815e-06
-5.42038e-06
-4.03249e-06
-1.33102e-06
2.41438e-06
7.12737e-06
1.26528e-05
1.87949e-05
2.53812e-05
3.22894e-05
3.93563e-05
4.64954e-05
5.35577e-05
6.04481e-05
6.70796e-05
7.33538e-05
7.92067e-05
8.45789e-05
8.93918e-05
9.35997e-05
9.71705e-05
0.000100051
0.000102196
0.000103586
0.000104201
0.00010401
0.000102996
0.000101152
9.84671e-05
9.4934e-05
9.05452e-05
8.52969e-05
7.91891e-05
7.22226e-05
6.43976e-05
5.57161e-05
4.61843e-05
3.58124e-05
2.46116e-05
1.2593e-05
-2.32011e-07
-1.38495e-05
-2.82438e-05
-4.33996e-05
-5.9303e-05
-7.5939e-05
-9.32902e-05
-0.000111337
-0.00013006
-0.00014944
-0.000169455
-0.000190086
-0.000211311
-0.000233111
-0.000255468
-0.000278362
-0.000301772
-0.000325675
-0.000350053
-0.000374886
-0.000400158
-0.000425847
-0.000451931
-0.000478389
-0.000505198
-0.000532338
-0.00055979
-0.000587531
-0.000615542
-0.000643798
-0.000672278
-0.000700961
-0.000729827
-0.000758855
-0.000788024
-0.000817312
-0.000846696
-0.000876156
-0.000905673
-0.000935226
-0.000964793
-0.000994349
-0.00102387
-0.00105333
-0.00108272
-0.00111201
-0.00114118
-0.00117022
-0.00119909
-0.00122778
-0.00125625
-0.0012845
-0.00131251
-0.00134026
-0.00136772
-0.00139487
-0.00142168
-0.00144814
-0.00147423
-0.00149994
-0.00152524
-0.00155009
-0.00157447
-0.00159837
-0.00162177
-0.00164466
-0.00166702
-0.00168882
-0.00171002
-0.00173063
-0.00175061
-0.00176996
-0.00178865
-0.00180666
-0.00182396
-0.00184056
-0.00185644
-0.00187157
-0.00188593
-0.0018995
-0.00191228
-0.00192426
-0.00193543
-0.00194576
-0.00195524
-0.00196389
-0.0019717
-0.00197865
-0.00198472
-0.00198994
-0.00199431
-0.00199783
-0.00200047
-0.00200224
-0.00200321
-0.00200339
-0.00200275
-0.0020013
-0.0019991
-0.00199621
-0.00199263
-0.00198838
-0.00198353
-0.00197815
-0.00197227
-0.00196598
-0.00195934
-0.00195246
-0.00194541
-0.0019383
-0.00193127
-0.00192442
-0.00191789
-0.00191185
-0.00190643
-0.00190183
-0.00189815
-0.00189552
-0.00189427
-0.00189458
-9.75995e-06
-9.44592e-06
-7.76241e-06
-4.90756e-06
-1.14644e-06
3.41242e-06
8.65603e-06
1.44697e-05
2.06471e-05
2.71054e-05
3.36932e-05
4.03167e-05
4.68664e-05
5.3238e-05
5.93566e-05
6.51396e-05
7.05104e-05
7.54217e-05
7.98048e-05
8.3603e-05
8.67868e-05
8.93101e-05
9.11281e-05
9.22182e-05
9.25623e-05
9.21286e-05
9.08972e-05
8.88635e-05
8.60207e-05
8.23562e-05
7.78586e-05
7.25271e-05
6.63633e-05
5.9365e-05
5.15299e-05
4.28598e-05
3.33616e-05
2.30447e-05
1.19188e-05
-6.0154e-09
-1.27178e-05
-2.62031e-05
-4.04477e-05
-5.54389e-05
-7.11631e-05
-8.76052e-05
-0.000104748
-0.000122572
-0.000141061
-0.000160195
-0.000179952
-0.000200313
-0.000221258
-0.00024277
-0.000264831
-0.000287419
-0.000310514
-0.000334095
-0.000358144
-0.000382643
-0.000407574
-0.000432917
-0.000458649
-0.000484748
-0.000511195
-0.000537969
-0.00056505
-0.000592419
-0.000620053
-0.00064793
-0.000676027
-0.000704325
-0.000732804
-0.000761444
-0.000790223
-0.000819119
-0.000848109
-0.000877175
-0.000906297
-0.000935455
-0.000964626
-0.000993785
-0.00102291
-0.00105197
-0.00108097
-0.00110986
-0.00113865
-0.00116729
-0.00119578
-0.00122407
-0.00125216
-0.00128003
-0.00130766
-0.00133504
-0.00136212
-0.0013889
-0.00141535
-0.00144145
-0.00146719
-0.00149255
-0.0015175
-0.00154201
-0.00156606
-0.00158963
-0.00161272
-0.00163531
-0.00165737
-0.00167887
-0.0016998
-0.00172013
-0.00173986
-0.00175896
-0.00177741
-0.00179519
-0.00181228
-0.00182869
-0.00184439
-0.00185935
-0.00187356
-0.00188699
-0.00189966
-0.00191155
-0.00192264
-0.0019329
-0.00194235
-0.00195099
-0.00195881
-0.00196579
-0.00197192
-0.00197722
-0.00198169
-0.00198534
-0.00198816
-0.00199013
-0.0019913
-0.0019917
-0.00199134
-0.00199022
-0.00198836
-0.00198581
-0.00198261
-0.00197878
-0.00197437
-0.00196945
-0.00196405
-0.00195825
-0.00195213
-0.00194576
-0.00193921
-0.00193262
-0.00192607
-0.00191966
-0.00191354
-0.00190782
-0.00190264
-0.00189814
-0.00189447
-0.00189172
-0.00189013
-0.00188982
-1.58952e-05
-1.47304e-05
-1.25835e-05
-9.45013e-06
-5.54111e-06
-9.75296e-07
4.15077e-06
9.73442e-06
1.56251e-05
2.1751e-05
2.79591e-05
3.4174e-05
4.03051e-05
4.62431e-05
5.19302e-05
5.7291e-05
6.22431e-05
6.67442e-05
7.07434e-05
7.41773e-05
7.70067e-05
7.91994e-05
8.07191e-05
8.15323e-05
8.16205e-05
8.09595e-05
7.95288e-05
7.73182e-05
7.43223e-05
7.05295e-05
6.59284e-05
6.05174e-05
5.42963e-05
4.72612e-05
3.941e-05
3.07454e-05
2.1274e-05
1.10034e-05
-5.77427e-08
-1.1899e-05
-2.45084e-05
-3.78735e-05
-5.19821e-05
-6.68225e-05
-8.23818e-05
-9.86446e-05
-0.000115594
-0.000133213
-0.000151484
-0.000170386
-0.000189902
-0.00021001
-0.000230694
-0.000251936
-0.000273717
-0.000296017
-0.000318816
-0.000342094
-0.000365834
-0.000390017
-0.000414627
-0.000439641
-0.000465038
-0.000490798
-0.000516901
-0.000543328
-0.00057006
-0.000597074
-0.00062435
-0.000651865
-0.000679599
-0.000707531
-0.000735643
-0.000763913
-0.000792321
-0.000820843
-0.000849458
-0.000878148
-0.000906894
-0.000935676
-0.00096447
-0.000993251
-0.00102199
-0.00105068
-0.0010793
-0.00110782
-0.00113623
-0.00116451
-0.00119262
-0.00122055
-0.00124827
-0.00127578
-0.00130305
-0.00133007
-0.0013568
-0.00138323
-0.00140933
-0.00143509
-0.0014605
-0.00148553
-0.00151015
-0.00153434
-0.00155807
-0.00158134
-0.00160414
-0.00162644
-0.00164822
-0.00166944
-0.0016901
-0.00171018
-0.00172967
-0.00174854
-0.00176677
-0.00178433
-0.00180123
-0.00181746
-0.00183299
-0.0018478
-0.00186187
-0.00187519
-0.00188776
-0.00189956
-0.00191057
-0.00192079
-0.00193021
-0.00193885
-0.00194668
-0.00195369
-0.00195988
-0.00196527
-0.00196984
-0.0019736
-0.00197657
-0.00197875
-0.00198014
-0.00198074
-0.00198061
-0.00197978
-0.00197824
-0.00197601
-0.00197315
-0.0019697
-0.00196569
-0.00196116
-0.00195618
-0.00195081
-0.00194513
-0.00193918
-0.00193306
-0.00192687
-0.00192067
-0.0019146
-0.00190877
-0.00190325
-0.00189817
-0.00189367
-0.00188984
-0.00188684
-0.00188473
-0.0018836
-2.31952e-05
-2.10236e-05
-1.82323e-05
-1.47703e-05
-1.06166e-05
-5.93244e-06
-8.04797e-07
4.68148e-06
1.04032e-05
1.62897e-05
2.22232e-05
2.81231e-05
3.39144e-05
3.95023e-05
4.48295e-05
4.98299e-05
5.44283e-05
5.85789e-05
6.22413e-05
6.53571e-05
6.78783e-05
6.97792e-05
7.10288e-05
7.15896e-05
7.14421e-05
7.05695e-05
6.89539e-05
6.65793e-05
6.34387e-05
5.95231e-05
5.48236e-05
4.93358e-05
4.30565e-05
3.59821e-05
2.81113e-05
1.94468e-05
9.99441e-06
-2.38711e-07
-1.12441e-05
-2.30117e-05
-3.55305e-05
-4.87892e-05
-6.27764e-05
-7.74805e-05
-9.2889e-05
-0.000108988
-0.000125761
-0.000143191
-0.000161261
-0.000179951
-0.000199241
-0.000219116
-0.000239558
-0.00026055
-0.000282072
-0.000304103
-0.000326625
-0.000349621
-0.000373072
-0.00039696
-0.000421268
-0.000445975
-0.000471058
-0.0004965
-0.000522281
-0.000548383
-0.000574785
-0.000601466
-0.000628404
-0.000655579
-0.00068297
-0.000710558
-0.000738324
-0.000766246
-0.000794303
-0.000822472
-0.000850733
-0.000879069
-0.000907461
-0.000935887
-0.000964324
-0.000992748
-0.00102113
-0.00104947
-0.00107773
-0.0011059
-0.00113396
-0.00116189
-0.00118965
-0.00121722
-0.0012446
-0.00127177
-0.00129871
-0.00132539
-0.00135179
-0.00137788
-0.00140366
-0.0014291
-0.0014542
-0.00147892
-0.00150324
-0.00152712
-0.00155056
-0.00157355
-0.00159608
-0.00161811
-0.00163962
-0.00166059
-0.001681
-0.00170085
-0.00172012
-0.00173877
-0.00175679
-0.00177416
-0.00179089
-0.00180695
-0.00182233
-0.00183699
-0.00185094
-0.00186415
-0.00187664
-0.00188836
-0.00189931
-0.00190948
-0.00191889
-0.00192753
-0.00193537
-0.00194241
-0.00194867
-0.00195414
-0.00195882
-0.00196268
-0.00196578
-0.00196813
-0.00196973
-0.00197055
-0.00197064
-0.00197006
-0.0019688
-0.00196686
-0.0019643
-0.00196117
-0.00195751
-0.00195333
-0.00194871
-0.00194371
-0.00193837
-0.00193277
-0.001927
-0.00192111
-0.00191518
-0.00190934
-0.00190365
-0.00189824
-0.00189316
-0.00188853
-0.00188445
-0.00188103
-0.00187828
-0.00187619
-3.13988e-05
-2.81963e-05
-2.46653e-05
-2.07118e-05
-1.62526e-05
-1.13494e-05
-6.11973e-06
-6.28989e-07
5.01879e-06
1.07641e-05
1.65194e-05
2.2189e-05
2.77245e-05
3.30433e-05
3.80752e-05
4.27756e-05
4.70785e-05
5.09268e-05
5.42895e-05
5.71215e-05
5.93714e-05
6.10139e-05
6.2021e-05
6.23572e-05
6.19993e-05
6.09333e-05
5.91455e-05
5.66189e-05
5.33442e-05
4.93126e-05
4.45181e-05
3.89549e-05
3.26172e-05
2.55019e-05
1.76084e-05
8.93904e-06
-5.00867e-07
-1.07042e-05
-2.16627e-05
-3.33669e-05
-4.58066e-05
-5.89713e-05
-7.28501e-05
-8.74316e-05
-0.000102704
-0.000118653
-0.000135265
-0.000152522
-0.000170408
-0.000188902
-0.000207987
-0.000227646
-0.000247865
-0.000268625
-0.000289905
-0.000311687
-0.000333953
-0.000356685
-0.000379868
-0.000403482
-0.000427509
-0.000451927
-0.000476717
-0.000501861
-0.00052734
-0.000553138
-0.000579231
-0.0006056
-0.000632221
-0.000659075
-0.000686144
-0.00071341
-0.000740851
-0.000768446
-0.000796172
-0.000824009
-0.000851937
-0.000879939
-0.000907997
-0.000936089
-0.00096419
-0.000992276
-0.00102033
-0.00104832
-0.00107625
-0.0011041
-0.00113183
-0.00115942
-0.00118685
-0.0012141
-0.00124116
-0.00126801
-0.00129463
-0.00132099
-0.00134708
-0.00137287
-0.00139834
-0.00142349
-0.00144829
-0.00147272
-0.00149674
-0.00152035
-0.00154352
-0.00156625
-0.00158852
-0.0016103
-0.00163156
-0.00165229
-0.00167249
-0.00169212
-0.00171118
-0.00172963
-0.00174746
-0.00176466
-0.00178123
-0.00179714
-0.00181238
-0.00182691
-0.00184075
-0.00185387
-0.00186627
-0.00187793
-0.00188882
-0.00189897
-0.00190837
-0.00191701
-0.00192486
-0.00193194
-0.00193825
-0.0019438
-0.00194858
-0.00195257
-0.00195579
-0.00195829
-0.00196006
-0.00196109
-0.00196139
-0.00196102
-0.00196
-0.00195833
-0.00195605
-0.0019532
-0.00194983
-0.00194595
-0.00194164
-0.00193693
-0.00193187
-0.00192656
-0.00192104
-0.00191535
-0.00190962
-0.0019039
-0.00189831
-0.00189285
-0.00188768
-0.00188284
-0.00187841
-0.00187451
-0.00187103
-0.00186786
-4.02628e-05
-3.59302e-05
-3.16171e-05
-2.71338e-05
-2.22629e-05
-1.70774e-05
-1.1674e-05
-6.10129e-06
-4.4566e-07
5.23176e-06
1.08745e-05
1.6388e-05
2.17345e-05
2.68468e-05
3.1649e-05
3.61092e-05
4.01727e-05
4.37743e-05
4.68842e-05
4.94685e-05
5.14799e-05
5.28905e-05
5.36761e-05
5.3809e-05
5.32635e-05
5.20231e-05
5.00771e-05
4.74107e-05
4.40123e-05
3.9872e-05
3.49859e-05
2.93488e-05
2.29534e-05
1.57962e-05
7.87672e-06
-8.02547e-07
-1.02361e-05
-2.04168e-05
-3.13369e-05
-4.29874e-05
-5.53585e-05
-6.84402e-05
-8.22221e-05
-9.66936e-05
-0.000111844
-0.000127659
-0.000144126
-0.000161226
-0.000178942
-0.000197256
-0.000216152
-0.000235615
-0.000255628
-0.000276173
-0.00029723
-0.000318781
-0.00034081
-0.0003633
-0.000386234
-0.000409592
-0.000433356
-0.000457505
-0.000482022
-0.000506888
-0.000532088
-0.000557601
-0.000583405
-0.00060948
-0.000635805
-0.00066236
-0.000689128
-0.00071609
-0.000743226
-0.000770513
-0.000797929
-0.000825454
-0.00085307
-0.000880759
-0.000908504
-0.000936281
-0.000964067
-0.000991836
-0.00101957
-0.00104725
-0.00107487
-0.0011024
-0.00112982
-0.00115711
-0.00118423
-0.00121118
-0.00123793
-0.00126448
-0.0012908
-0.00131687
-0.00134267
-0.00136816
-0.00139336
-0.00141823
-0.00144275
-0.00146691
-0.00149067
-0.00151401
-0.00153694
-0.00155942
-0.00158145
-0.00160299
-0.00162403
-0.00164455
-0.00166454
-0.00168398
-0.00170284
-0.00172111
-0.00173877
-0.00175581
-0.00177223
-0.00178801
-0.00180311
-0.00181754
-0.00183128
-0.00184432
-0.00185665
-0.00186824
-0.0018791
-0.00188922
-0.00189861
-0.00190725
-0.00191513
-0.00192225
-0.00192862
-0.00193424
-0.0019391
-0.00194321
-0.00194657
-0.0019492
-0.0019511
-0.00195232
-0.00195283
-0.00195266
-0.00195185
-0.00195041
-0.00194837
-0.00194577
-0.00194263
-0.00193901
-0.00193495
-0.00193047
-0.00192564
-0.00192054
-0.0019152
-0.00190969
-0.00190406
-0.00189839
-0.00189275
-0.00188722
-0.00188185
-0.00187672
-0.00187189
-0.00186744
-0.00186317
-0.00185887
-4.95903e-05
-4.41447e-05
-3.90082e-05
-3.39214e-05
-2.85836e-05
-2.30547e-05
-1.74021e-05
-1.16735e-05
-5.93456e-06
-2.46736e-07
5.35273e-06
1.07813e-05
1.59974e-05
2.09542e-05
2.55805e-05
2.98426e-05
3.37029e-05
3.71025e-05
4.00046e-05
4.23789e-05
4.4188e-05
4.53993e-05
4.59888e-05
4.59372e-05
4.52214e-05
4.3824e-05
4.17332e-05
3.89368e-05
3.54233e-05
3.11829e-05
2.62112e-05
2.05023e-05
1.40487e-05
6.84738e-06
-1.10133e-06
-9.79461e-06
-1.92269e-05
-2.93913e-05
-4.02806e-05
-5.18864e-05
-6.4199e-05
-7.72086e-05
-9.09056e-05
-0.000105281
-0.000120322
-0.000136018
-0.000152353
-0.00016931
-0.000186872
-0.000205023
-0.000223748
-0.000243031
-0.000262855
-0.000283203
-0.000304054
-0.000325393
-0.000347204
-0.00036947
-0.000392174
-0.000415295
-0.000438815
-0.000462715
-0.000486978
-0.000511587
-0.000536526
-0.000561774
-0.00058731
-0.000613111
-0.000639158
-0.000665435
-0.000691922
-0.000718602
-0.000745452
-0.000772451
-0.000799576
-0.000826809
-0.000854133
-0.00088153
-0.000908981
-0.000936464
-0.000963953
-0.000991427
-0.00101887
-0.00104626
-0.00107358
-0.00110082
-0.00112795
-0.00115495
-0.00118178
-0.00120844
-0.00123491
-0.00126118
-0.00128723
-0.00131303
-0.00133855
-0.00136378
-0.00138871
-0.00141332
-0.00143759
-0.00146149
-0.001485
-0.00150811
-0.0015308
-0.00155306
-0.00157487
-0.0015962
-0.00161702
-0.00163734
-0.00165715
-0.0016764
-0.00169509
-0.00171319
-0.0017307
-0.0017476
-0.00176389
-0.00177954
-0.00179453
-0.00180885
-0.00182251
-0.00183548
-0.00184775
-0.00185929
-0.00187011
-0.00188022
-0.0018896
-0.00189824
-0.00190615
-0.00191332
-0.00191976
-0.00192544
-0.00193037
-0.00193459
-0.00193808
-0.00194083
-0.00194287
-0.00194424
-0.00194494
-0.00194495
-0.00194432
-0.00194308
-0.00194126
-0.00193885
-0.00193593
-0.00193252
-0.00192866
-0.00192437
-0.00191974
-0.00191478
-0.00190955
-0.00190411
-0.00189851
-0.00189284
-0.00188712
-0.00188143
-0.0018758
-0.00187033
-0.00186503
-0.00185998
-0.00185488
-0.00184944
-5.91532e-05
-5.25632e-05
-4.66044e-05
-4.09018e-05
-3.50636e-05
-2.91357e-05
-2.31918e-05
-1.72633e-05
-1.13914e-05
-5.63803e-06
-2.56457e-08
5.37802e-06
1.0524e-05
1.53824e-05
1.98908e-05
2.40047e-05
2.76994e-05
3.09304e-05
3.36556e-05
3.58477e-05
3.74822e-05
3.85239e-05
3.8946e-05
3.87313e-05
3.78624e-05
3.63236e-05
3.41016e-05
3.11858e-05
2.75649e-05
2.32306e-05
1.81775e-05
1.23985e-05
5.88687e-06
-1.35948e-06
-9.33963e-06
-1.80503e-05
-2.74863e-05
-3.76412e-05
-4.8508e-05
-6.00778e-05
-7.23413e-05
-8.52891e-05
-9.89127e-05
-0.000113203
-0.00012815
-0.000143739
-0.000159956
-0.000176785
-0.000194209
-0.000212213
-0.000230783
-0.000249903
-0.000269555
-0.000289721
-0.000310384
-0.000331528
-0.00035314
-0.000375201
-0.000397693
-0.000420596
-0.00044389
-0.00046756
-0.000491589
-0.000515962
-0.00054066
-0.000565662
-0.000590947
-0.000616494
-0.000642284
-0.000668302
-0.000694529
-0.000720946
-0.00074753
-0.00077426
-0.000801114
-0.000828075
-0.000855127
-0.000882251
-0.000909429
-0.000936637
-0.00096385
-0.000991048
-0.00101821
-0.00104533
-0.00107239
-0.00109936
-0.00112621
-0.00115294
-0.0011795
-0.0012059
-0.00123211
-0.00125812
-0.00128391
-0.00130945
-0.00133472
-0.0013597
-0.00138439
-0.00140876
-0.00143279
-0.00145646
-0.00147974
-0.00150263
-0.00152511
-0.00154716
-0.00156876
-0.00158989
-0.00161053
-0.00163067
-0.0016503
-0.00166939
-0.00168792
-0.00170587
-0.00172324
-0.00174002
-0.00175619
-0.00177172
-0.00178661
-0.00180085
-0.00181444
-0.00182735
-0.00183955
-0.00185105
-0.00186186
-0.00187196
-0.00188134
-0.00188999
-0.00189791
-0.00190513
-0.00191163
-0.00191738
-0.00192239
-0.0019267
-0.0019303
-0.00193319
-0.00193536
-0.00193685
-0.0019377
-0.00193788
-0.00193741
-0.00193635
-0.0019347
-0.00193247
-0.00192973
-0.00192649
-0.00192277
-0.00191863
-0.00191411
-0.00190924
-0.0019041
-0.00189868
-0.00189309
-0.00188735
-0.00188147
-0.00187558
-0.00186965
-0.00186375
-0.00185794
-0.00185227
-0.00184634
-0.00183977
-6.88127e-05
-6.11123e-05
-5.43195e-05
-4.79849e-05
-4.16067e-05
-3.52455e-05
-2.89623e-05
-2.27816e-05
-1.67258e-05
-1.08587e-05
-5.19125e-06
2.28038e-07
5.34624e-06
1.01445e-05
1.45773e-05
1.8592e-05
2.21644e-05
2.52632e-05
2.78456e-05
2.98866e-05
3.1369e-05
3.22606e-05
3.25362e-05
3.218e-05
3.11771e-05
2.95132e-05
2.71722e-05
2.41457e-05
2.04246e-05
1.60023e-05
1.08716e-05
5.02344e-06
-1.54674e-06
-8.83924e-06
-1.68527e-05
-2.55839e-05
-3.50284e-05
-4.51802e-05
-5.60317e-05
-6.75734e-05
-7.97962e-05
-9.26923e-05
-0.000106254
-0.000120473
-0.000135337
-0.000150833
-0.000166946
-0.00018366
-0.000200962
-0.000218836
-0.000237266
-0.000256237
-0.000275732
-0.000295733
-0.000316226
-0.000337195
-0.000358625
-0.000380499
-0.000402796
-0.000425498
-0.000448586
-0.000472045
-0.00049586
-0.000520015
-0.000544492
-0.000569267
-0.00059432
-0.000619632
-0.000645185
-0.000670964
-0.00069695
-0.000723122
-0.00074946
-0.00077594
-0.000802543
-0.000829252
-0.000856052
-0.000882924
-0.000909848
-0.000936801
-0.000963757
-0.000990699
-0.00101761
-0.00104447
-0.00107128
-0.001098
-0.0011246
-0.00115108
-0.00117739
-0.00120354
-0.00122951
-0.00125528
-0.00128083
-0.00130614
-0.00133117
-0.00135593
-0.00138039
-0.00140454
-0.00142836
-0.00145181
-0.00147488
-0.00149757
-0.00151985
-0.00154172
-0.00156313
-0.00158408
-0.00160455
-0.00162453
-0.001644
-0.00166294
-0.00168133
-0.00169914
-0.00171639
-0.00173305
-0.00174912
-0.00176455
-0.00177936
-0.00179353
-0.00180705
-0.0018199
-0.00183206
-0.00184353
-0.00185431
-0.00186441
-0.00187379
-0.00188246
-0.00189042
-0.00189768
-0.00190422
-0.00191004
-0.00191514
-0.00191953
-0.00192322
-0.00192622
-0.00192852
-0.00193014
-0.00193111
-0.00193144
-0.00193113
-0.00193021
-0.0019287
-0.00192662
-0.00192402
-0.00192091
-0.0019173
-0.00191327
-0.00190882
-0.00190402
-0.0018989
-0.00189347
-0.0018878
-0.00188194
-0.00187589
-0.00186973
-0.00186345
-0.00185712
-0.00185077
-0.00184447
-0.0018377
-0.00183001
-7.84165e-05
-6.96184e-05
-6.19995e-05
-5.50253e-05
-4.81079e-05
-4.12947e-05
-3.46398e-05
-2.81753e-05
-2.18995e-05
-1.58688e-05
-1.00975e-05
-4.6175e-06
5.17113e-07
5.28937e-06
9.67306e-06
1.36202e-05
1.71023e-05
2.00987e-05
2.25717e-05
2.44945e-05
2.58489e-05
2.66113e-05
2.67606e-05
2.62816e-05
2.51596e-05
2.33821e-05
2.09335e-05
1.78064e-05
1.3993e-05
9.48689e-06
4.27988e-06
-1.63651e-06
-8.26453e-06
-1.56032e-05
-2.36517e-05
-3.24076e-05
-4.18661e-05
-5.20207e-05
-6.28629e-05
-7.43836e-05
-8.65748e-05
-9.943e-05
-0.000112942
-0.000127101
-0.000141894
-0.000157309
-0.000173331
-0.000189946
-0.00020714
-0.000224898
-0.000243204
-0.000262041
-0.000281394
-0.000301248
-0.000321588
-0.000342399
-0.000363666
-0.000385369
-0.000407489
-0.000430006
-0.000452906
-0.000476174
-0.000499795
-0.000523752
-0.000548024
-0.000572591
-0.000597432
-0.000622528
-0.000647863
-0.000673422
-0.000699186
-0.000725134
-0.000751243
-0.000777493
-0.000803864
-0.000830342
-0.000856909
-0.000883549
-0.000910239
-0.000936955
-0.000963675
-0.00099038
-0.00101706
-0.00104369
-0.00107026
-0.00109675
-0.00112312
-0.00114936
-0.00117545
-0.00120137
-0.00122712
-0.00125267
-0.001278
-0.00130309
-0.00132791
-0.00135246
-0.00137672
-0.00140067
-0.00142428
-0.00144754
-0.00147042
-0.00149292
-0.00151503
-0.00153672
-0.00155797
-0.00157875
-0.00159907
-0.0016189
-0.00163823
-0.00165704
-0.00167529
-0.00169299
-0.00171013
-0.0017267
-0.00174267
-0.00175802
-0.00177275
-0.00178686
-0.00180033
-0.00181312
-0.00182525
-0.0018367
-0.00184748
-0.00185756
-0.00186695
-0.00187565
-0.00188365
-0.00189095
-0.00189753
-0.00190342
-0.00190861
-0.00191308
-0.00191685
-0.00191995
-0.00192237
-0.00192411
-0.00192518
-0.00192563
-0.00192545
-0.00192466
-0.00192326
-0.00192131
-0.00191883
-0.0019158
-0.00191229
-0.00190833
-0.00190393
-0.00189915
-0.00189398
-0.0018885
-0.00188274
-0.0018767
-0.00187043
-0.00186397
-0.00185733
-0.00185053
-0.00184364
-0.00183669
-0.00182909
-0.00182032
-8.78387e-05
-7.79799e-05
-6.95461e-05
-6.1929e-05
-5.44571e-05
-4.71737e-05
-4.01315e-05
-3.33593e-05
-2.68389e-05
-2.06169e-05
-1.47128e-05
-9.13919e-06
-3.94533e-06
8.44071e-07
5.21151e-06
9.12013e-06
1.25392e-05
1.54552e-05
1.78416e-05
1.96709e-05
2.09206e-05
2.15752e-05
2.16185e-05
2.10341e-05
1.98065e-05
1.7925e-05
1.53781e-05
1.21593e-05
8.26068e-06
3.67448e-06
-1.60753e-06
-7.59118e-06
-1.42766e-05
-2.16627e-05
-2.9749e-05
-3.85332e-05
-4.80099e-05
-5.81721e-05
-6.90111e-05
-8.05187e-05
-9.2688e-05
-0.000105513
-0.000118985
-0.000133095
-0.000147829
-0.000163175
-0.00017912
-0.000195649
-0.00021275
-0.000230406
-0.000248602
-0.000267322
-0.00028655
-0.000306272
-0.000326476
-0.000347146
-0.000368266
-0.000389815
-0.000411774
-0.000434127
-0.000456857
-0.000479952
-0.000503397
-0.000527173
-0.00055126
-0.000575638
-0.000600285
-0.000625184
-0.000650321
-0.000675679
-0.000701239
-0.000726981
-0.000752881
-0.00077892
-0.000805079
-0.000831344
-0.0008577
-0.000884126
-0.000910601
-0.000937101
-0.000963603
-0.000990092
-0.00101655
-0.00104297
-0.00106933
-0.0010956
-0.00112177
-0.00114779
-0.00117367
-0.00119939
-0.00122494
-0.00125028
-0.00127541
-0.0013003
-0.00132493
-0.00134929
-0.00137336
-0.00139713
-0.00142056
-0.00144364
-0.00146635
-0.00148869
-0.00151063
-0.00153217
-0.00155326
-0.0015739
-0.00159408
-0.00161378
-0.00163299
-0.00165167
-0.00166981
-0.00168741
-0.00170446
-0.00172094
-0.00173683
-0.00175211
-0.00176678
-0.00178084
-0.00179426
-0.00180702
-0.00181912
-0.00183056
-0.00184133
-0.00185142
-0.00186081
-0.00186954
-0.00187758
-0.00188493
-0.00189156
-0.0018975
-0.00190276
-0.00190733
-0.00191118
-0.00191436
-0.00191688
-0.00191873
-0.0019199
-0.00192045
-0.00192039
-0.00191969
-0.00191839
-0.00191655
-0.00191415
-0.0019112
-0.00190775
-0.00190381
-0.00189943
-0.00189461
-0.00188939
-0.00188383
-0.00187793
-0.00187168
-0.00186518
-0.00185841
-0.00185137
-0.0018441
-0.00183664
-0.00182904
-0.00182063
-0.00181082
-9.69497e-05
-8.60887e-05
-7.68621e-05
-6.86127e-05
-6.05824e-05
-5.28228e-05
-4.53711e-05
-3.82597e-05
-3.14692e-05
-2.50332e-05
-1.89731e-05
-1.32866e-05
-8.01075e-06
-3.17585e-06
1.20338e-06
5.10249e-06
8.49085e-06
1.13525e-05
1.36715e-05
1.5425e-05
1.65907e-05
1.7157e-05
1.71103e-05
1.64338e-05
1.51131e-05
1.31387e-05
1.05033e-05
7.19959e-06
3.21956e-06
-1.44505e-06
-6.8008e-06
-1.285e-05
-1.9592e-05
-2.70266e-05
-3.51534e-05
-4.39697e-05
-5.34691e-05
-6.36439e-05
-7.44863e-05
-8.59891e-05
-9.81461e-05
-0.00011095
-0.000124393
-0.000138464
-0.00015315
-0.000168439
-0.00018432
-0.000200778
-0.0002178
-0.000235369
-0.000253469
-0.000272085
-0.000291203
-0.000310811
-0.000330895
-0.000351441
-0.00037243
-0.000393842
-0.000415659
-0.000437863
-0.000460442
-0.000483382
-0.000506669
-0.000530283
-0.000554203
-0.000578409
-0.000602881
-0.000627603
-0.00065256
-0.000677736
-0.000703111
-0.000728664
-0.000754374
-0.000780221
-0.000806189
-0.000832262
-0.000858424
-0.000884656
-0.000910935
-0.000937237
-0.000963541
-0.000989833
-0.0010161
-0.00104232
-0.00106849
-0.00109457
-0.00112054
-0.00114637
-0.00117206
-0.00119759
-0.00122295
-0.00124812
-0.00127306
-0.00129777
-0.00132222
-0.00134641
-0.00137032
-0.00139392
-0.00141719
-0.00144011
-0.00146267
-0.00148486
-0.00150666
-0.00152805
-0.00154901
-0.00156952
-0.00158958
-0.00160917
-0.00162827
-0.00164684
-0.00166489
-0.0016824
-0.00169937
-0.00171577
-0.00173159
-0.00174681
-0.00176144
-0.00177546
-0.00178884
-0.00180157
-0.00181365
-0.00182509
-0.00183586
-0.00184596
-0.00185538
-0.00186413
-0.00187221
-0.0018796
-0.00188629
-0.00189229
-0.00189761
-0.00190225
-0.00190619
-0.00190945
-0.00191206
-0.001914
-0.00191527
-0.00191591
-0.00191593
-0.00191533
-0.00191412
-0.00191235
-0.00190998
-0.00190708
-0.00190368
-0.00189975
-0.00189535
-0.0018905
-0.00188519
-0.0018795
-0.00187342
-0.00186698
-0.0018602
-0.00185309
-0.00184565
-0.0018379