/*--------------------------------*- C++ -*----------------------------------*\
  =========                 |
  \\      /  F ield         | OpenFOAM: The Open Source CFD Toolbox
   \\    /   O peration     | Website:  https://openfoam.org
    \\  /    A nd           | Version:  7
     \\/     M anipulation  |
\*---------------------------------------------------------------------------*/
FoamFile
{
    version     2.0;
    format      ascii;
    class       volVectorField;
    location    "0.3375";
    object      U;
}
// * * * * * * * * * * * * * * * * * * * * * * * * * * * * * * * * * * * * * //

dimensions      [0 1 -1 0 0 0 0];

internalField   nonuniform List<vector> 
51200
(
(-2.59091e-09 1.69465e-08 0)
(-4.0329e-08 3.12392e-08 0)
(-1.13126e-07 3.33649e-08 0)
(-1.81863e-07 2.88652e-08 0)
(-2.29503e-07 2.05753e-08 0)
(-2.48474e-07 1.0212e-08 0)
(-2.34391e-07 -1.2016e-09 0)
(-1.86042e-07 -1.3038e-08 0)
(-1.02293e-07 -2.41997e-08 0)
(1.71901e-08 -3.51814e-08 0)
(1.71527e-07 -4.5622e-08 0)
(3.59067e-07 -5.57286e-08 0)
(5.78375e-07 -6.51969e-08 0)
(8.27902e-07 -7.40451e-08 0)
(1.10598e-06 -8.23558e-08 0)
(1.41073e-06 -8.99956e-08 0)
(1.74049e-06 -9.71203e-08 0)
(2.09343e-06 -1.03724e-07 0)
(2.46774e-06 -1.09754e-07 0)
(2.8618e-06 -1.15279e-07 0)
(3.27392e-06 -1.20302e-07 0)
(3.70236e-06 -1.24785e-07 0)
(4.14562e-06 -1.28772e-07 0)
(4.60229e-06 -1.32351e-07 0)
(5.07075e-06 -1.355e-07 0)
(5.5495e-06 -1.38239e-07 0)
(6.03722e-06 -1.40609e-07 0)
(6.53267e-06 -1.4259e-07 0)
(7.03451e-06 -1.44185e-07 0)
(7.54149e-06 -1.45447e-07 0)
(8.0525e-06 -1.46402e-07 0)
(8.56646e-06 -1.47033e-07 0)
(9.08229e-06 -1.47334e-07 0)
(9.59897e-06 -1.47348e-07 0)
(1.01155e-05 -1.47118e-07 0)
(1.0631e-05 -1.46642e-07 0)
(1.11446e-05 -1.45905e-07 0)
(1.16554e-05 -1.44925e-07 0)
(1.21626e-05 -1.43735e-07 0)
(1.26654e-05 -1.42345e-07 0)
(1.31631e-05 -1.40751e-07 0)
(1.36551e-05 -1.38964e-07 0)
(1.41408e-05 -1.37006e-07 0)
(1.46194e-05 -1.34892e-07 0)
(1.50904e-05 -1.32618e-07 0)
(1.55532e-05 -1.30182e-07 0)
(1.60075e-05 -1.27598e-07 0)
(1.64526e-05 -1.24889e-07 0)
(1.6888e-05 -1.22063e-07 0)
(1.73134e-05 -1.1912e-07 0)
(1.77282e-05 -1.16063e-07 0)
(1.81323e-05 -1.12902e-07 0)
(1.85252e-05 -1.0965e-07 0)
(1.89065e-05 -1.06314e-07 0)
(1.9276e-05 -1.02896e-07 0)
(1.96333e-05 -9.93986e-08 0)
(1.99783e-05 -9.58274e-08 0)
(2.03105e-05 -9.21891e-08 0)
(2.06299e-05 -8.84896e-08 0)
(2.09361e-05 -8.47314e-08 0)
(2.1229e-05 -8.09144e-08 0)
(2.15084e-05 -7.70406e-08 0)
(2.1774e-05 -7.31177e-08 0)
(2.20258e-05 -6.91564e-08 0)
(2.22635e-05 -6.51636e-08 0)
(2.2487e-05 -6.11383e-08 0)
(2.26963e-05 -5.70766e-08 0)
(2.28911e-05 -5.29783e-08 0)
(2.30714e-05 -4.88499e-08 0)
(2.32371e-05 -4.46998e-08 0)
(2.3388e-05 -4.05325e-08 0)
(2.35242e-05 -3.63474e-08 0)
(2.36455e-05 -3.21423e-08 0)
(2.37519e-05 -2.79172e-08 0)
(2.38433e-05 -2.36762e-08 0)
(2.39197e-05 -1.94254e-08 0)
(2.3981e-05 -1.5169e-08 0)
(2.40273e-05 -1.09066e-08 0)
(2.40584e-05 -6.63537e-09 0)
(2.40744e-05 -2.35473e-09 0)
(2.40752e-05 1.93082e-09 0)
(2.40609e-05 6.21328e-09 0)
(2.40314e-05 1.0486e-08 0)
(2.39867e-05 1.47481e-08 0)
(2.39269e-05 1.90046e-08 0)
(2.3852e-05 2.32609e-08 0)
(2.37621e-05 2.75161e-08 0)
(2.36572e-05 3.17619e-08 0)
(2.35373e-05 3.59875e-08 0)
(2.34024e-05 4.0187e-08 0)
(2.32527e-05 4.43625e-08 0)
(2.30882e-05 4.8522e-08 0)
(2.2909e-05 5.26713e-08 0)
(2.27153e-05 5.68059e-08 0)
(2.25071e-05 6.09097e-08 0)
(2.22844e-05 6.4967e-08 0)
(2.20474e-05 6.89755e-08 0)
(2.17963e-05 7.29477e-08 0)
(2.15313e-05 7.68958e-08 0)
(2.12525e-05 8.08151e-08 0)
(2.096e-05 8.46829e-08 0)
(2.0654e-05 8.8475e-08 0)
(2.03347e-05 9.21856e-08 0)
(2.00024e-05 9.58302e-08 0)
(1.96574e-05 9.94282e-08 0)
(1.92999e-05 1.02979e-07 0)
(1.89303e-05 1.06458e-07 0)
(1.85486e-05 1.09834e-07 0)
(1.81552e-05 1.13094e-07 0)
(1.77505e-05 1.16253e-07 0)
(1.73349e-05 1.19329e-07 0)
(1.69089e-05 1.22316e-07 0)
(1.64727e-05 1.25179e-07 0)
(1.60268e-05 1.27888e-07 0)
(1.55717e-05 1.30446e-07 0)
(1.51078e-05 1.32882e-07 0)
(1.46358e-05 1.35206e-07 0)
(1.41562e-05 1.37383e-07 0)
(1.36695e-05 1.39356e-07 0)
(1.31762e-05 1.41109e-07 0)
(1.26772e-05 1.42674e-07 0)
(1.21732e-05 1.44081e-07 0)
(1.16648e-05 1.453e-07 0)
(1.11529e-05 1.46269e-07 0)
(1.06381e-05 1.4697e-07 0)
(1.01213e-05 1.47441e-07 0)
(9.60365e-06 1.47703e-07 0)
(9.08591e-06 1.47704e-07 0)
(8.56893e-06 1.47368e-07 0)
(8.05372e-06 1.4669e-07 0)
(7.54151e-06 1.45709e-07 0)
(7.03353e-06 1.44429e-07 0)
(6.53078e-06 1.42816e-07 0)
(6.0343e-06 1.40867e-07 0)
(5.54554e-06 1.38571e-07 0)
(5.06615e-06 1.35805e-07 0)
(4.5974e-06 1.3247e-07 0)
(4.14022e-06 1.28718e-07 0)
(3.69602e-06 1.24772e-07 0)
(3.26692e-06 1.20501e-07 0)
(2.85482e-06 1.1554e-07 0)
(2.46083e-06 1.09843e-07 0)
(2.08623e-06 1.03678e-07 0)
(1.73314e-06 9.71045e-08 0)
(1.40358e-06 8.99505e-08 0)
(1.09906e-06 8.21765e-08 0)
(8.21235e-07 7.38691e-08 0)
(5.72109e-07 6.50235e-08 0)
(3.53407e-07 5.55759e-08 0)
(1.66597e-07 4.55123e-08 0)
(1.31532e-08 3.48962e-08 0)
(-1.05668e-07 2.38902e-08 0)
(-1.89113e-07 1.25756e-08 0)
(-2.37032e-07 1.03462e-09 0)
(-2.50135e-07 -1.02093e-08 0)
(-2.3074e-07 -2.04407e-08 0)
(-1.83712e-07 -2.83087e-08 0)
(-1.17622e-07 -3.12304e-08 0)
(-5.05439e-08 -2.60305e-08 0)
(-9.95651e-09 -9.43544e-09 0)
(-2.18189e-08 6.06613e-08 0)
(-1.014e-07 1.17898e-07 0)
(-2.18889e-07 1.25144e-07 0)
(-3.19613e-07 1.00078e-07 0)
(-3.69994e-07 5.41827e-08 0)
(-3.50236e-07 -4.10306e-09 0)
(-2.47695e-07 -6.94536e-08 0)
(-5.556e-08 -1.38279e-07 0)
(2.29054e-07 -2.07301e-07 0)
(6.07033e-07 -2.75521e-07 0)
(1.0779e-06 -3.41912e-07 0)
(1.63889e-06 -4.06041e-07 0)
(2.28709e-06 -4.67189e-07 0)
(3.01831e-06 -5.25093e-07 0)
(3.8286e-06 -5.79723e-07 0)
(4.71331e-06 -6.30782e-07 0)
(5.66786e-06 -6.78415e-07 0)
(6.68778e-06 -7.22683e-07 0)
(7.76821e-06 -7.6347e-07 0)
(8.90455e-06 -8.00926e-07 0)
(1.00924e-05 -8.35198e-07 0)
(1.1327e-05 -8.66262e-07 0)
(1.26039e-05 -8.94106e-07 0)
(1.39192e-05 -9.19011e-07 0)
(1.52685e-05 -9.41096e-07 0)
(1.66478e-05 -9.60391e-07 0)
(1.80532e-05 -9.77014e-07 0)
(1.94811e-05 -9.9107e-07 0)
(2.09278e-05 -1.00265e-06 0)
(2.23897e-05 -1.01189e-06 0)
(2.38637e-05 -1.01888e-06 0)
(2.53466e-05 -1.0237e-06 0)
(2.68353e-05 -1.02641e-06 0)
(2.83268e-05 -1.02714e-06 0)
(2.98184e-05 -1.02601e-06 0)
(3.13073e-05 -1.02307e-06 0)
(3.27912e-05 -1.0184e-06 0)
(3.42674e-05 -1.01211e-06 0)
(3.57337e-05 -1.00429e-06 0)
(3.71877e-05 -9.95006e-07 0)
(3.86276e-05 -9.84301e-07 0)
(4.00512e-05 -9.72261e-07 0)
(4.14567e-05 -9.58981e-07 0)
(4.28422e-05 -9.44528e-07 0)
(4.42062e-05 -9.28937e-07 0)
(4.55469e-05 -9.12258e-07 0)
(4.68629e-05 -8.94563e-07 0)
(4.81526e-05 -8.7593e-07 0)
(4.94148e-05 -8.56417e-07 0)
(5.06481e-05 -8.36067e-07 0)
(5.18514e-05 -8.14923e-07 0)
(5.30234e-05 -7.93035e-07 0)
(5.41633e-05 -7.70455e-07 0)
(5.52698e-05 -7.47225e-07 0)
(5.63423e-05 -7.23383e-07 0)
(5.73797e-05 -6.98968e-07 0)
(5.83812e-05 -6.74022e-07 0)
(5.93461e-05 -6.48586e-07 0)
(6.02736e-05 -6.22689e-07 0)
(6.11631e-05 -5.96356e-07 0)
(6.2014e-05 -5.69608e-07 0)
(6.28257e-05 -5.42477e-07 0)
(6.35977e-05 -5.15003e-07 0)
(6.43293e-05 -4.87224e-07 0)
(6.50203e-05 -4.59165e-07 0)
(6.567e-05 -4.30838e-07 0)
(6.62783e-05 -4.02256e-07 0)
(6.68448e-05 -3.73438e-07 0)
(6.7369e-05 -3.44412e-07 0)
(6.78508e-05 -3.15207e-07 0)
(6.82898e-05 -2.85841e-07 0)
(6.86858e-05 -2.56326e-07 0)
(6.90386e-05 -2.26674e-07 0)
(6.93481e-05 -1.96899e-07 0)
(6.9614e-05 -1.67024e-07 0)
(6.98362e-05 -1.37068e-07 0)
(7.00146e-05 -1.07045e-07 0)
(7.01491e-05 -7.69653e-08 0)
(7.02397e-05 -4.68345e-08 0)
(7.02862e-05 -1.66665e-08 0)
(7.02886e-05 1.35166e-08 0)
(7.0247e-05 4.3689e-08 0)
(7.01612e-05 7.38304e-08 0)
(7.00314e-05 1.03933e-07 0)
(6.98576e-05 1.33997e-07 0)
(6.964e-05 1.64021e-07 0)
(6.93785e-05 1.9399e-07 0)
(6.90734e-05 2.23873e-07 0)
(6.87247e-05 2.53637e-07 0)
(6.83325e-05 2.8326e-07 0)
(6.78973e-05 3.12737e-07 0)
(6.74191e-05 3.42071e-07 0)
(6.68983e-05 3.71258e-07 0)
(6.6335e-05 4.00267e-07 0)
(6.57296e-05 4.2905e-07 0)
(6.50824e-05 4.57565e-07 0)
(6.43938e-05 4.85794e-07 0)
(6.36642e-05 5.13744e-07 0)
(6.28941e-05 5.41422e-07 0)
(6.20841e-05 5.68795e-07 0)
(6.12344e-05 5.95789e-07 0)
(6.03457e-05 6.22334e-07 0)
(5.94186e-05 6.48399e-07 0)
(5.84539e-05 6.74004e-07 0)
(5.74523e-05 6.99166e-07 0)
(5.64148e-05 7.23847e-07 0)
(5.53418e-05 7.47949e-07 0)
(5.42342e-05 7.71374e-07 0)
(5.30931e-05 7.94086e-07 0)
(5.19194e-05 8.16104e-07 0)
(5.07144e-05 8.37434e-07 0)
(4.94792e-05 8.5801e-07 0)
(4.82149e-05 8.77706e-07 0)
(4.69227e-05 8.96427e-07 0)
(4.56041e-05 9.1416e-07 0)
(4.42607e-05 9.30929e-07 0)
(4.2894e-05 9.46698e-07 0)
(4.15054e-05 9.6133e-07 0)
(4.00966e-05 9.74675e-07 0)
(3.86695e-05 9.86687e-07 0)
(3.72262e-05 9.97399e-07 0)
(3.57687e-05 1.00679e-06 0)
(3.4299e-05 1.0147e-06 0)
(3.28192e-05 1.02094e-06 0)
(3.13318e-05 1.02548e-06 0)
(2.98393e-05 1.02836e-06 0)
(2.83444e-05 1.02953e-06 0)
(2.68495e-05 1.02879e-06 0)
(2.53574e-05 1.02595e-06 0)
(2.3871e-05 1.02101e-06 0)
(2.23938e-05 1.01399e-06 0)
(2.09289e-05 1.00469e-06 0)
(1.94795e-05 9.92864e-07 0)
(1.80489e-05 9.78567e-07 0)
(1.66407e-05 9.61981e-07 0)
(1.5259e-05 9.42822e-07 0)
(1.39079e-05 9.20467e-07 0)
(1.25913e-05 8.94883e-07 0)
(1.13127e-05 8.66701e-07 0)
(1.00765e-05 8.35984e-07 0)
(8.88758e-06 8.01883e-07 0)
(7.75056e-06 7.63975e-07 0)
(6.66967e-06 7.22766e-07 0)
(5.64948e-06 6.78473e-07 0)
(4.6949e-06 6.30665e-07 0)
(3.81056e-06 5.79218e-07 0)
(3.00094e-06 5.24428e-07 0)
(2.27059e-06 4.66403e-07 0)
(1.62365e-06 4.05161e-07 0)
(1.06384e-06 3.40955e-07 0)
(5.94472e-07 2.74303e-07 0)
(2.17838e-07 2.05946e-07 0)
(-6.53621e-08 1.36838e-07 0)
(-2.5578e-07 6.8613e-08 0)
(-3.56784e-07 3.78116e-09 0)
(-3.76047e-07 -5.42052e-08 0)
(-3.25816e-07 -9.91097e-08 0)
(-2.26452e-07 -1.21786e-07 0)
(-1.10061e-07 -1.09864e-07 0)
(-2.69325e-08 -5.04612e-08 0)
(-2.95769e-08 1.22341e-07 0)
(-1.17071e-07 2.3199e-07 0)
(-2.2511e-07 2.34677e-07 0)
(-2.93593e-07 1.62876e-07 0)
(-2.82679e-07 4.0865e-08 0)
(-1.65796e-07 -1.12838e-07 0)
(7.45427e-08 -2.8635e-07 0)
(4.49232e-07 -4.69943e-07 0)
(9.64086e-07 -6.57863e-07 0)
(1.62091e-06 -8.44807e-07 0)
(2.41932e-06 -1.02827e-06 0)
(3.3564e-06 -1.20597e-06 0)
(4.42824e-06 -1.3766e-06 0)
(5.62927e-06 -1.53911e-06 0)
(6.95377e-06 -1.69291e-06 0)
(8.39508e-06 -1.83759e-06 0)
(9.94626e-06 -1.97284e-06 0)
(1.16006e-05 -2.09878e-06 0)
(1.33509e-05 -2.2153e-06 0)
(1.51899e-05 -2.3225e-06 0)
(1.71108e-05 -2.4207e-06 0)
(1.91066e-05 -2.51007e-06 0)
(2.11703e-05 -2.59063e-06 0)
(2.32953e-05 -2.66273e-06 0)
(2.54751e-05 -2.72677e-06 0)
(2.77033e-05 -2.7829e-06 0)
(2.99738e-05 -2.83132e-06 0)
(3.22807e-05 -2.87242e-06 0)
(3.46181e-05 -2.90653e-06 0)
(3.69806e-05 -2.93385e-06 0)
(3.93628e-05 -2.95458e-06 0)
(4.17599e-05 -2.96907e-06 0)
(4.41666e-05 -2.97762e-06 0)
(4.65784e-05 -2.98047e-06 0)
(4.89907e-05 -2.9778e-06 0)
(5.13993e-05 -2.96987e-06 0)
(5.37999e-05 -2.95697e-06 0)
(5.61887e-05 -2.93937e-06 0)
(5.85618e-05 -2.91726e-06 0)
(6.09158e-05 -2.89085e-06 0)
(6.32471e-05 -2.86034e-06 0)
(6.55526e-05 -2.82595e-06 0)
(6.78291e-05 -2.7879e-06 0)
(7.00737e-05 -2.74635e-06 0)
(7.22838e-05 -2.70149e-06 0)
(7.44566e-05 -2.65349e-06 0)
(7.65896e-05 -2.60254e-06 0)
(7.86805e-05 -2.54881e-06 0)
(8.0727e-05 -2.49244e-06 0)
(8.27271e-05 -2.4336e-06 0)
(8.46788e-05 -2.37244e-06 0)
(8.65801e-05 -2.30909e-06 0)
(8.84295e-05 -2.24368e-06 0)
(9.02251e-05 -2.17634e-06 0)
(9.19656e-05 -2.10717e-06 0)
(9.36494e-05 -2.0363e-06 0)
(9.52752e-05 -1.96386e-06 0)
(9.68417e-05 -1.88996e-06 0)
(9.83477e-05 -1.81468e-06 0)
(9.97922e-05 -1.7381e-06 0)
(0.000101174 -1.6603e-06 0)
(0.000102492 -1.5814e-06 0)
(0.000103746 -1.50149e-06 0)
(0.000104935 -1.42064e-06 0)
(0.000106057 -1.33893e-06 0)
(0.000107113 -1.25639e-06 0)
(0.000108102 -1.17311e-06 0)
(0.000109022 -1.08915e-06 0)
(0.000109874 -1.00458e-06 0)
(0.000110657 -9.19464e-07 0)
(0.00011137 -8.33849e-07 0)
(0.000112014 -7.47776e-07 0)
(0.000112588 -6.61298e-07 0)
(0.000113091 -5.74468e-07 0)
(0.000113523 -4.87341e-07 0)
(0.000113884 -3.99965e-07 0)
(0.000114174 -3.12378e-07 0)
(0.000114393 -2.24616e-07 0)
(0.00011454 -1.3672e-07 0)
(0.000114616 -4.87376e-08 0)
(0.00011462 3.928e-08 0)
(0.000114552 1.27284e-07 0)
(0.000114413 2.15234e-07 0)
(0.000114202 3.03098e-07 0)
(0.00011392 3.90843e-07 0)
(0.000113566 4.78432e-07 0)
(0.000113141 5.65812e-07 0)
(0.000112645 6.52923e-07 0)
(0.000112079 7.39708e-07 0)
(0.000111441 8.26118e-07 0)
(0.000110734 9.12118e-07 0)
(0.000109957 9.97668e-07 0)
(0.000109111 1.08271e-06 0)
(0.000108196 1.16717e-06 0)
(0.000107212 1.25096e-06 0)
(0.000106161 1.33401e-06 0)
(0.000105042 1.41627e-06 0)
(0.000103857 1.4977e-06 0)
(0.000102607 1.57823e-06 0)
(0.000101291 1.65775e-06 0)
(9.99111e-05 1.73615e-06 0)
(9.84682e-05 1.81331e-06 0)
(9.69631e-05 1.88918e-06 0)
(9.53971e-05 1.96369e-06 0)
(9.37715e-05 2.03677e-06 0)
(9.20875e-05 2.10829e-06 0)
(9.03462e-05 2.17807e-06 0)
(8.85491e-05 2.24595e-06 0)
(8.66979e-05 2.31186e-06 0)
(8.47942e-05 2.37572e-06 0)
(8.28399e-05 2.43743e-06 0)
(8.08369e-05 2.4968e-06 0)
(7.87869e-05 2.5536e-06 0)
(7.66921e-05 2.6077e-06 0)
(7.4555e-05 2.65898e-06 0)
(7.23779e-05 2.70735e-06 0)
(7.01633e-05 2.75258e-06 0)
(6.79137e-05 2.79442e-06 0)
(6.56319e-05 2.83265e-06 0)
(6.33209e-05 2.86717e-06 0)
(6.09841e-05 2.89787e-06 0)
(5.86247e-05 2.92448e-06 0)
(5.62459e-05 2.94669e-06 0)
(5.38512e-05 2.96424e-06 0)
(5.14448e-05 2.977e-06 0)
(4.90306e-05 2.98484e-06 0)
(4.66128e-05 2.98745e-06 0)
(4.41954e-05 2.98446e-06 0)
(4.17831e-05 2.97562e-06 0)
(3.93807e-05 2.96085e-06 0)
(3.69933e-05 2.93998e-06 0)
(3.46257e-05 2.91253e-06 0)
(3.22835e-05 2.87796e-06 0)
(2.99724e-05 2.83615e-06 0)
(2.7698e-05 2.78724e-06 0)
(2.54658e-05 2.7311e-06 0)
(2.32823e-05 2.66693e-06 0)
(2.11543e-05 2.59405e-06 0)
(1.90884e-05 2.51258e-06 0)
(1.70905e-05 2.42283e-06 0)
(1.51674e-05 2.32438e-06 0)
(1.33266e-05 2.21657e-06 0)
(1.15755e-05 2.0994e-06 0)
(9.92061e-06 1.97305e-06 0)
(8.36897e-06 1.83732e-06 0)
(6.9279e-06 1.69214e-06 0)
(5.6042e-06 1.53791e-06 0)
(4.4042e-06 1.37498e-06 0)
(3.33384e-06 1.20388e-06 0)
(2.39834e-06 1.02571e-06 0)
(1.60192e-06 8.42069e-07 0)
(9.47127e-07 6.54864e-07 0)
(4.34481e-07 4.67287e-07 0)
(6.1919e-08 2.84039e-07 0)
(-1.76782e-07 1.11126e-07 0)
(-2.92338e-07 -4.2081e-08 0)
(-3.01864e-07 -1.62462e-07 0)
(-2.31428e-07 -2.32159e-07 0)
(-1.2183e-07 -2.26205e-07 0)
(-3.18479e-08 -1.18116e-07 0)
(-2.69783e-08 1.84237e-07 0)
(-9.60079e-08 3.28221e-07 0)
(-1.57514e-07 3.02955e-07 0)
(-1.49606e-07 1.56085e-07 0)
(-3.0897e-08 -7.52353e-08 0)
(2.26756e-07 -3.62186e-07 0)
(6.44045e-07 -6.84763e-07 0)
(1.23428e-06 -1.02715e-06 0)
(2.00472e-06 -1.37848e-06 0)
(2.95868e-06 -1.73032e-06 0)
(4.09575e-06 -2.07707e-06 0)
(5.41312e-06 -2.41427e-06 0)
(6.90625e-06 -2.73923e-06 0)
(8.56867e-06 -3.0497e-06 0)
(1.03933e-05 -3.34437e-06 0)
(1.23722e-05 -3.62243e-06 0)
(1.44965e-05 -3.88308e-06 0)
(1.67576e-05 -4.12624e-06 0)
(1.91464e-05 -4.35182e-06 0)
(2.16536e-05 -4.5598e-06 0)
(2.42702e-05 -4.7505e-06 0)
(2.69872e-05 -4.92428e-06 0)
(2.97955e-05 -5.08143e-06 0)
(3.26861e-05 -5.22236e-06 0)
(3.56507e-05 -5.34762e-06 0)
(3.86807e-05 -5.45764e-06 0)
(4.17681e-05 -5.55283e-06 0)
(4.49047e-05 -5.63379e-06 0)
(4.8083e-05 -5.70112e-06 0)
(5.12956e-05 -5.75522e-06 0)
(5.45354e-05 -5.79654e-06 0)
(5.77954e-05 -5.82567e-06 0)
(6.10691e-05 -5.84317e-06 0)
(6.435e-05 -5.84949e-06 0)
(6.76321e-05 -5.84506e-06 0)
(7.09095e-05 -5.83037e-06 0)
(7.41766e-05 -5.80591e-06 0)
(7.7428e-05 -5.77215e-06 0)
(8.06587e-05 -5.72951e-06 0)
(8.38637e-05 -5.6784e-06 0)
(8.70384e-05 -5.61924e-06 0)
(9.01784e-05 -5.55246e-06 0)
(9.32794e-05 -5.47841e-06 0)
(9.63375e-05 -5.39747e-06 0)
(9.93488e-05 -5.30998e-06 0)
(0.00010231 -5.21631e-06 0)
(0.000105217 -5.1168e-06 0)
(0.000108067 -5.01177e-06 0)
(0.000110858 -4.90153e-06 0)
(0.000113585 -4.78636e-06 0)
(0.000116246 -4.66657e-06 0)
(0.00011884 -4.54244e-06 0)
(0.000121362 -4.41422e-06 0)
(0.000123812 -4.28215e-06 0)
(0.000126187 -4.14646e-06 0)
(0.000128484 -4.00739e-06 0)
(0.000130703 -3.86518e-06 0)
(0.000132841 -3.72003e-06 0)
(0.000134897 -3.57211e-06 0)
(0.000136869 -3.42162e-06 0)
(0.000138755 -3.26873e-06 0)
(0.000140555 -3.11363e-06 0)
(0.000142267 -2.9565e-06 0)
(0.00014389 -2.79749e-06 0)
(0.000145423 -2.63672e-06 0)
(0.000146865 -2.47432e-06 0)
(0.000148216 -2.31043e-06 0)
(0.000149473 -2.14518e-06 0)
(0.000150637 -1.97872e-06 0)
(0.000151706 -1.81115e-06 0)
(0.000152681 -1.64257e-06 0)
(0.000153561 -1.47309e-06 0)
(0.000154344 -1.30279e-06 0)
(0.000155032 -1.13179e-06 0)
(0.000155622 -9.60177e-07 0)
(0.000156116 -7.88062e-07 0)
(0.000156512 -6.15526e-07 0)
(0.000156811 -4.4265e-07 0)
(0.000157013 -2.69513e-07 0)
(0.000157116 -9.62034e-08 0)
(0.000157122 7.71835e-08 0)
(0.000157029 2.50556e-07 0)
(0.000156839 4.23832e-07 0)
(0.000156551 5.96938e-07 0)
(0.000156166 7.69799e-07 0)
(0.000155683 9.42328e-07 0)
(0.000155102 1.11443e-06 0)
(0.000154425 1.28598e-06 0)
(0.000153651 1.45689e-06 0)
(0.00015278 1.62706e-06 0)
(0.000151814 1.79642e-06 0)
(0.000150753 1.96485e-06 0)
(0.000149597 2.13224e-06 0)
(0.000148348 2.29844e-06 0)
(0.000147004 2.46331e-06 0)
(0.000145569 2.62673e-06 0)
(0.000144041 2.78859e-06 0)
(0.000142423 2.94876e-06 0)
(0.000140716 3.1071e-06 0)
(0.000138919 3.26339e-06 0)
(0.000137036 3.41744e-06 0)
(0.000135066 3.56908e-06 0)
(0.000133012 3.71816e-06 0)
(0.000130875 3.86454e-06 0)
(0.000128657 4.00801e-06 0)
(0.000126359 4.1483e-06 0)
(0.000123984 4.28514e-06 0)
(0.000121532 4.4183e-06 0)
(0.000119007 4.54759e-06 0)
(0.000116411 4.67279e-06 0)
(0.000113746 4.79363e-06 0)
(0.000111015 4.90976e-06 0)
(0.00010822 5.02084e-06 0)
(0.000105365 5.12664e-06 0)
(0.000102452 5.22692e-06 0)
(9.9485e-05 5.32136e-06 0)
(9.64675e-05 5.40952e-06 0)
(9.34027e-05 5.49099e-06 0)
(9.02945e-05 5.56545e-06 0)
(8.71472e-05 5.63262e-06 0)
(8.39651e-05 5.69215e-06 0)
(8.07526e-05 5.74353e-06 0)
(7.75141e-05 5.78627e-06 0)
(7.42547e-05 5.82e-06 0)
(7.09798e-05 5.84441e-06 0)
(6.76947e-05 5.85904e-06 0)
(6.4405e-05 5.86331e-06 0)
(6.11163e-05 5.85665e-06 0)
(5.7835e-05 5.83869e-06 0)
(5.45677e-05 5.80904e-06 0)
(5.1321e-05 5.76722e-06 0)
(4.81013e-05 5.71268e-06 0)
(4.49162e-05 5.64484e-06 0)
(4.17734e-05 5.56307e-06 0)
(3.86808e-05 5.46685e-06 0)
(3.56456e-05 5.35593e-06 0)
(3.26758e-05 5.23004e-06 0)
(2.97804e-05 5.08844e-06 0)
(2.69686e-05 4.93027e-06 0)
(2.42487e-05 4.75528e-06 0)
(2.1629e-05 4.56354e-06 0)
(1.91192e-05 4.35464e-06 0)
(1.67289e-05 4.12809e-06 0)
(1.44667e-05 3.88389e-06 0)
(1.23416e-05 3.62224e-06 0)
(1.03628e-05 3.34337e-06 0)
(8.53871e-06 3.04782e-06 0)
(6.87717e-06 2.73647e-06 0)
(5.3855e-06 2.4107e-06 0)
(4.07001e-06 2.07279e-06 0)
(2.93518e-06 1.72565e-06 0)
(1.98371e-06 1.37331e-06 0)
(1.21592e-06 1.0221e-06 0)
(6.2828e-07 6.79967e-07 0)
(2.13252e-07 3.58156e-07 0)
(-4.22095e-08 7.22647e-08 0)
(-1.58257e-07 -1.57114e-07 0)
(-1.62813e-07 -3.0214e-07 0)
(-9.89386e-08 -3.26575e-07 0)
(-2.82744e-08 -1.83906e-07 0)
(-1.94474e-08 2.299e-07 0)
(-5.17835e-08 3.75303e-07 0)
(-3.82425e-08 2.90407e-07 0)
(7.83977e-08 3.75408e-08 0)
(3.38669e-07 -3.34787e-07 0)
(7.709e-07 -7.88506e-07 0)
(1.39572e-06 -1.29479e-06 0)
(2.22777e-06 -1.8321e-06 0)
(3.27529e-06 -2.38393e-06 0)
(4.5418e-06 -2.93831e-06 0)
(6.02759e-06 -3.4861e-06 0)
(7.72957e-06 -4.02052e-06 0)
(9.64278e-06 -4.53695e-06 0)
(1.17602e-05 -5.03166e-06 0)
(1.40736e-05 -5.50231e-06 0)
(1.6574e-05 -5.94735e-06 0)
(1.92512e-05 -6.36551e-06 0)
(2.20951e-05 -6.75625e-06 0)
(2.5095e-05 -7.11949e-06 0)
(2.82398e-05 -7.45507e-06 0)
(3.15188e-05 -7.76315e-06 0)
(3.4921e-05 -8.04425e-06 0)
(3.84357e-05 -8.29896e-06 0)
(4.20521e-05 -8.52775e-06 0)
(4.57597e-05 -8.73129e-06 0)
(4.95485e-05 -8.91035e-06 0)
(5.34083e-05 -9.06567e-06 0)
(5.73294e-05 -9.19799e-06 0)
(6.13024e-05 -9.30816e-06 0)
(6.53183e-05 -9.39694e-06 0)
(6.93681e-05 -9.46512e-06 0)
(7.34434e-05 -9.51351e-06 0)
(7.7536e-05 -9.54293e-06 0)
(8.1638e-05 -9.55413e-06 0)
(8.57419e-05 -9.54787e-06 0)
(8.98404e-05 -9.52492e-06 0)
(9.39263e-05 -9.48602e-06 0)
(9.79932e-05 -9.43191e-06 0)
(0.000102034 -9.36326e-06 0)
(0.000106044 -9.28077e-06 0)
(0.000110017 -9.18512e-06 0)
(0.000113946 -9.07696e-06 0)
(0.000117827 -8.95688e-06 0)
(0.000121655 -8.82549e-06 0)
(0.000125425 -8.68337e-06 0)
(0.000129132 -8.53109e-06 0)
(0.000132772 -8.36921e-06 0)
(0.000136342 -8.19825e-06 0)
(0.000139836 -8.0187e-06 0)
(0.000143253 -7.83106e-06 0)
(0.000146587 -7.63579e-06 0)
(0.000149836 -7.43335e-06 0)
(0.000152997 -7.22414e-06 0)
(0.000156067 -7.00857e-06 0)
(0.000159043 -6.78705e-06 0)
(0.000161923 -6.55995e-06 0)
(0.000164704 -6.32764e-06 0)
(0.000167385 -6.09044e-06 0)
(0.000169962 -5.84867e-06 0)
(0.000172435 -5.60264e-06 0)
(0.0001748 -5.35266e-06 0)
(0.000177058 -5.09901e-06 0)
(0.000179205 -4.84197e-06 0)
(0.000181241 -4.58179e-06 0)
(0.000183164 -4.31869e-06 0)
(0.000184973 -4.0529e-06 0)
(0.000186666 -3.78464e-06 0)
(0.000188244 -3.51414e-06 0)
(0.000189704 -3.24158e-06 0)
(0.000191046 -2.96718e-06 0)
(0.000192269 -2.69111e-06 0)
(0.000193373 -2.41352e-06 0)
(0.000194357 -2.13459e-06 0)
(0.000195219 -1.85449e-06 0)
(0.000195961 -1.57337e-06 0)
(0.00019658 -1.29141e-06 0)
(0.000197078 -1.00875e-06 0)
(0.000197453 -7.25513e-07 0)
(0.000197706 -4.4185e-07 0)
(0.000197836 -1.57903e-07 0)
(0.000197843 1.26175e-07 0)
(0.000197727 4.10237e-07 0)
(0.000197489 6.94144e-07 0)
(0.000197128 9.77767e-07 0)
(0.000196644 1.26098e-06 0)
(0.000196038 1.54362e-06 0)
(0.00019531 1.82554e-06 0)
(0.00019446 2.10656e-06 0)
(0.000193489 2.38651e-06 0)
(0.000192397 2.66523e-06 0)
(0.000191186 2.94258e-06 0)
(0.000189854 3.21839e-06 0)
(0.000188404 3.49244e-06 0)
(0.000186837 3.76452e-06 0)
(0.000185152 4.03441e-06 0)
(0.000183351 4.30189e-06 0)
(0.000181435 4.56677e-06 0)
(0.000179406 4.82883e-06 0)
(0.000177265 5.08782e-06 0)
(0.000175013 5.34341e-06 0)
(0.000172651 5.59531e-06 0)
(0.000170182 5.84324e-06 0)
(0.000167607 6.08696e-06 0)
(0.000164928 6.32617e-06 0)
(0.000162148 6.56052e-06 0)
(0.000159268 6.78959e-06 0)
(0.00015629 7.01298e-06 0)
(0.000153218 7.23034e-06 0)
(0.000150055 7.44134e-06 0)
(0.000146802 7.64557e-06 0)
(0.000143464 7.84255e-06 0)
(0.000140043 8.03176e-06 0)
(0.000136542 8.21273e-06 0)
(0.000132967 8.38503e-06 0)
(0.00012932 8.54821e-06 0)
(0.000125605 8.70172e-06 0)
(0.000121828 8.84491e-06 0)
(0.000117992 8.97718e-06 0)
(0.000114102 9.09801e-06 0)
(0.000110163 9.20689e-06 0)
(0.000106182 9.30316e-06 0)
(0.000102163 9.38604e-06 0)
(9.81114e-05 9.45485e-06 0)
(9.40346e-05 9.50901e-06 0)
(8.99389e-05 9.54793e-06 0)
(8.58308e-05 9.57078e-06 0)
(8.17171e-05 9.5767e-06 0)
(7.76052e-05 9.56499e-06 0)
(7.3503e-05 9.53502e-06 0)
(6.94185e-05 9.48597e-06 0)
(6.53597e-05 9.4169e-06 0)
(6.13351e-05 9.32707e-06 0)
(5.73535e-05 9.21599e-06 0)
(5.34243e-05 9.08283e-06 0)
(4.95572e-05 8.92629e-06 0)
(4.57619e-05 8.74553e-06 0)
(4.20479e-05 8.54039e-06 0)
(3.84255e-05 8.31047e-06 0)
(3.49057e-05 8.05451e-06 0)
(3.14991e-05 7.7716e-06 0)
(2.82163e-05 7.46172e-06 0)
(2.50681e-05 7.12473e-06 0)
(2.20658e-05 6.76002e-06 0)
(1.92201e-05 6.36747e-06 0)
(1.65416e-05 5.94765e-06 0)
(1.40408e-05 5.50122e-06 0)
(1.17275e-05 5.02912e-06 0)
(9.6108e-06 4.53299e-06 0)
(7.69901e-06 4.01542e-06 0)
(5.99894e-06 3.47991e-06 0)
(4.51538e-06 2.93118e-06 0)
(3.25153e-06 2.37624e-06 0)
(2.20714e-06 1.82417e-06 0)
(1.37805e-06 1.28697e-06 0)
(7.55968e-07 7.81368e-07 0)
(3.26802e-07 3.2916e-07 0)
(6.99431e-08 -4.1228e-08 0)
(-4.32829e-08 -2.92178e-07 0)
(-5.46073e-08 -3.7688e-07 0)
(-2.04543e-08 -2.31068e-07 0)
(-9.89343e-09 2.49079e-07 0)
(5.09221e-09 3.54351e-07 0)
(1.14038e-07 1.71975e-07 0)
(3.63301e-07 -2.20876e-07 0)
(7.9013e-07 -7.66827e-07 0)
(1.42151e-06 -1.41924e-06 0)
(2.27745e-06 -2.14193e-06 0)
(3.37204e-06 -2.90672e-06 0)
(4.71335e-06 -3.69243e-06 0)
(6.30527e-06 -4.48251e-06 0)
(8.14799e-06 -5.26461e-06 0)
(1.02381e-05 -6.02932e-06 0)
(1.25705e-05 -6.76973e-06 0)
(1.51374e-05 -7.48061e-06 0)
(1.79299e-05 -8.15828e-06 0)
(2.0938e-05 -8.80017e-06 0)
(2.41508e-05 -9.40449e-06 0)
(2.75563e-05 -9.97013e-06 0)
(3.11428e-05 -1.04967e-05 0)
(3.48981e-05 -1.0984e-05 0)
(3.88095e-05 -1.1432e-05 0)
(4.28646e-05 -1.18413e-05 0)
(4.70512e-05 -1.22127e-05 0)
(5.13568e-05 -1.25467e-05 0)
(5.57694e-05 -1.28442e-05 0)
(6.02773e-05 -1.31062e-05 0)
(6.48687e-05 -1.33339e-05 0)
(6.95322e-05 -1.35282e-05 0)
(7.42571e-05 -1.36902e-05 0)
(7.90325e-05 -1.38211e-05 0)
(8.38483e-05 -1.39219e-05 0)
(8.86943e-05 -1.39938e-05 0)
(9.35609e-05 -1.4038e-05 0)
(9.84389e-05 -1.40554e-05 0)
(0.000103319 -1.40473e-05 0)
(0.000108194 -1.40147e-05 0)
(0.000113054 -1.39587e-05 0)
(0.000117891 -1.38803e-05 0)
(0.000122699 -1.37805e-05 0)
(0.000127469 -1.36604e-05 0)
(0.000132195 -1.35208e-05 0)
(0.000136871 -1.33629e-05 0)
(0.00014149 -1.31873e-05 0)
(0.000146045 -1.2995e-05 0)
(0.000150533 -1.27869e-05 0)
(0.000154946 -1.25639e-05 0)
(0.00015928 -1.23265e-05 0)
(0.00016353 -1.20758e-05 0)
(0.000167692 -1.18123e-05 0)
(0.00017176 -1.15369e-05 0)
(0.000175731 -1.12501e-05 0)
(0.000179601 -1.09527e-05 0)
(0.000183367 -1.06453e-05 0)
(0.000187024 -1.03284e-05 0)
(0.000190571 -1.00027e-05 0)
(0.000194002 -9.66866e-06 0)
(0.000197317 -9.32688e-06 0)
(0.000200511 -8.97782e-06 0)
(0.000203583 -8.62196e-06 0)
(0.00020653 -8.25977e-06 0)
(0.00020935 -7.8917e-06 0)
(0.000212041 -7.51816e-06 0)
(0.000214601 -7.13955e-06 0)
(0.000217028 -6.75624e-06 0)
(0.000219321 -6.36857e-06 0)
(0.000221478 -5.97689e-06 0)
(0.000223498 -5.58153e-06 0)
(0.000225379 -5.18282e-06 0)
(0.000227121 -4.78105e-06 0)
(0.000228722 -4.3765e-06 0)
(0.000230181 -3.96944e-06 0)
(0.000231497 -3.56011e-06 0)
(0.00023267 -3.14879e-06 0)
(0.000233699 -2.73572e-06 0)
(0.000234584 -2.32114e-06 0)
(0.000235323 -1.90528e-06 0)
(0.000235917 -1.48835e-06 0)
(0.000236365 -1.07058e-06 0)
(0.000236667 -6.52162e-07 0)
(0.000236822 -2.33332e-07 0)
(0.000236831 1.85692e-07 0)
(0.000236693 6.04698e-07 0)
(0.000236409 1.02348e-06 0)
(0.000235978 1.44185e-06 0)
(0.000235401 1.85959e-06 0)
(0.000234679 2.27647e-06 0)
(0.000233811 2.69225e-06 0)
(0.000232797 3.10668e-06 0)
(0.000231639 3.51952e-06 0)
(0.000230338 3.93053e-06 0)
(0.000228893 4.33948e-06 0)
(0.000227305 4.7461e-06 0)
(0.000225577 5.15009e-06 0)
(0.000223707 5.55113e-06 0)
(0.000221698 5.9489e-06 0)
(0.000219552 6.3431e-06 0)
(0.000217268 6.7334e-06 0)
(0.000214849 7.11948e-06 0)
(0.000212297 7.50094e-06 0)
(0.000209612 7.87734e-06 0)
(0.000206797 8.24826e-06 0)
(0.000203854 8.6133e-06 0)
(0.000200785 8.97206e-06 0)
(0.000197593 9.32409e-06 0)
(0.00019428 9.66885e-06 0)
(0.000190848 1.00058e-05 0)
(0.000187301 1.03343e-05 0)
(0.000183642 1.06538e-05 0)
(0.000179873 1.0964e-05 0)
(0.000175999 1.1264e-05 0)
(0.000172023 1.15533e-05 0)
(0.000167949 1.18311e-05 0)
(0.000163781 1.20967e-05 0)
(0.000159524 1.23495e-05 0)
(0.000155182 1.25888e-05 0)
(0.000150761 1.28137e-05 0)
(0.000146264 1.30233e-05 0)
(0.000141698 1.32169e-05 0)
(0.000137069 1.33937e-05 0)
(0.000132383 1.35528e-05 0)
(0.000127646 1.36932e-05 0)
(0.000122864 1.38139e-05 0)
(0.000118044 1.3914e-05 0)
(0.000113195 1.39926e-05 0)
(0.000108324 1.40487e-05 0)
(0.000103438 1.40811e-05 0)
(9.85454e-05 1.40887e-05 0)
(9.36555e-05 1.40706e-05 0)
(8.87774e-05 1.40258e-05 0)
(8.39201e-05 1.3953e-05 0)
(7.90933e-05 1.3851e-05 0)
(7.43072e-05 1.37186e-05 0)
(6.95722e-05 1.3555e-05 0)
(6.48989e-05 1.33594e-05 0)
(6.02981e-05 1.31302e-05 0)
(5.57817e-05 1.28661e-05 0)
(5.13615e-05 1.25662e-05 0)
(4.70488e-05 1.22302e-05 0)
(4.28555e-05 1.18569e-05 0)
(3.87946e-05 1.14452e-05 0)
(3.48783e-05 1.09946e-05 0)
(3.11189e-05 1.05051e-05 0)
(2.75287e-05 9.97636e-06 0)
(2.41204e-05 9.40829e-06 0)
(2.0906e-05 8.80169e-06 0)
(1.78969e-05 8.15767e-06 0)
(1.5104e-05 7.47782e-06 0)
(1.25375e-05 6.76491e-06 0)
(1.02062e-05 6.02288e-06 0)
(8.11766e-06 5.25647e-06 0)
(6.27729e-06 4.47295e-06 0)
(4.6882e-06 3.68201e-06 0)
(3.3499e-06 2.89572e-06 0)
(2.25859e-06 2.13094e-06 0)
(1.40619e-06 1.40887e-06 0)
(7.78418e-07 7.57888e-07 0)
(3.55301e-07 2.13847e-07 0)
(1.09067e-07 -1.77416e-07 0)
(2.53502e-09 -3.58377e-07 0)
(-1.04358e-08 -2.50812e-07 0)
(7.7399e-10 2.35618e-07 0)
(6.88865e-08 2.52394e-07 0)
(2.86371e-07 -6.8788e-08 0)
(6.8505e-07 -6.39074e-07 0)
(1.2958e-06 -1.39234e-06 0)
(2.14417e-06 -2.2753e-06 0)
(3.24806e-06 -3.24494e-06 0)
(4.62031e-06 -4.26764e-06 0)
(6.26831e-06 -5.31707e-06 0)
(8.1953e-06 -6.37257e-06 0)
(1.0401e-05 -7.41858e-06 0)
(1.28819e-05 -8.44262e-06 0)
(1.5632e-05 -9.43564e-06 0)
(1.86434e-05 -1.03907e-05 0)
(2.19062e-05 -1.13026e-05 0)
(2.54098e-05 -1.21676e-05 0)
(2.91422e-05 -1.29834e-05 0)
(3.30905e-05 -1.3748e-05 0)
(3.72419e-05 -1.44606e-05 0)
(4.15829e-05 -1.51211e-05 0)
(4.60997e-05 -1.57292e-05 0)
(5.07783e-05 -1.62854e-05 0)
(5.56053e-05 -1.67906e-05 0)
(6.05669e-05 -1.72455e-05 0)
(6.56495e-05 -1.76511e-05 0)
(7.08399e-05 -1.80088e-05 0)
(7.61251e-05 -1.832e-05 0)
(8.14923e-05 -1.85858e-05 0)
(8.69292e-05 -1.88078e-05 0)
(9.24236e-05 -1.89874e-05 0)
(9.79639e-05 -1.91262e-05 0)
(0.000103539 -1.92255e-05 0)
(0.000109137 -1.92868e-05 0)
(0.000114749 -1.93117e-05 0)
(0.000120363 -1.93016e-05 0)
(0.000125971 -1.92581e-05 0)
(0.000131562 -1.91824e-05 0)
(0.000137128 -1.9076e-05 0)
(0.000142659 -1.89403e-05 0)
(0.000148148 -1.87766e-05 0)
(0.000153587 -1.85863e-05 0)
(0.000158968 -1.83705e-05 0)
(0.000164284 -1.81306e-05 0)
(0.000169528 -1.78676e-05 0)
(0.000174694 -1.75829e-05 0)
(0.000179774 -1.72775e-05 0)
(0.000184764 -1.69525e-05 0)
(0.000189658 -1.66089e-05 0)
(0.000194449 -1.62477e-05 0)
(0.000199135 -1.587e-05 0)
(0.000203708 -1.54767e-05 0)
(0.000208166 -1.50686e-05 0)
(0.000212504 -1.46466e-05 0)
(0.000216717 -1.42116e-05 0)
(0.000220802 -1.37643e-05 0)
(0.000224756 -1.33055e-05 0)
(0.000228575 -1.28359e-05 0)
(0.000232256 -1.23562e-05 0)
(0.000235796 -1.18671e-05 0)
(0.000239193 -1.13692e-05 0)
(0.000242443 -1.08632e-05 0)
(0.000245545 -1.03495e-05 0)
(0.000248496 -9.82879e-06 0)
(0.000251294 -9.30151e-06 0)
(0.000253937 -8.76818e-06 0)
(0.000256424 -8.22926e-06 0)
(0.000258753 -7.68523e-06 0)
(0.000260922 -7.13652e-06 0)
(0.00026293 -6.58355e-06 0)
(0.000264776 -6.0267e-06 0)
(0.000266458 -5.46634e-06 0)
(0.000267977 -4.90283e-06 0)
(0.00026933 -4.33653e-06 0)